ITEM: TIMESTEP
100000
ITEM: NUMBER OF ATOMS
1000
ITEM: BOX BOUNDS pp pp pp
0.0000000000000000e+00 1.4938015821857213e+01
0.0000000000000000e+00 1.4938015821857213e+01
0.0000000000000000e+00 1.4938015821857213e+01
ITEM: ATOMS id type x y z
1 1 6.7513 2.18594 0.0574921
2 1 0.575551 0.296096 6.15693
3 1 7.30095 8.43318 12.7951
4 1 2.62197 11.7021 9.86287
5 1 12.5647 13.6104 12.4673
6 1 12.2458 6.78923 0.714193
7 1 12.5866 4.70757 5.98502
8 1 1.0868 13.4595 0.902117
9 1 0.200096 0.44639 4.56504
10 1 10.0664 14.113 11.9737
11 1 3.68207 10.5168 5.70069
12 1 14.0578 1.53891 9.07986
13 1 14.0971 9.04997 4.35837
14 1 2.73966 13.654 9.39592
15 1 4.13313 6.0135 14.3849
16 1 1.84255 14.3144 3.69902
17 1 7.55192 9.67636 5.83478
18 1 8.04429 5.89095 2.28174
19 1 10.2337 4.81153 14.6273
20 1 7.01104 11.1976 4.55952
21 1 4.3078 12.4901 3.00336
22 1 10.109 8.20569 13.6589
23 1 14.6336 8.19121 3.40032
24 1 9.67977 12.3916 3.34692
25 1 9.34726 8.83175 14.1985
26 1 3.68082 7.1915 9.67834
27 1 8.75527 5.9039 4.52455
28 1 3.19467 8.49472 7.37719
29 1 13.4361 1.01509 4.25801
30 1 13.3113 14.5269 12.4922
31 1 0.353808 3.16292 11.1624
32 1 4.39514 12.358 11.4145
33 1 1.87089 11.4543 0.884319
34 1 13.3409 7.41899 5.15361
35 1 3.92119 5.04809 11.9814
36 1 2.75799 5.21998 0.854675
37 1 14.7727 10.9126 3.87109
38 1 14.3542 2.13445 14.4088
39 1 2.4439 9.77598 13.6874
40 1 8.4044 1.0782 12.0085
41 1 10.254 9.33978 13.189
42 1 0.729699 12.2136 3.4912
43 1 0.101622 4.98335 13.816
44 1 14.7922 13.9502 5.47568
45 1 8.96583 11.8634 2.54898
46 1 11.4345 10.4512 12.9884
47 1 6.9469 13.5539 9.78306
48 1 4.14639 10.4579 6.71148
49 1 1.60183 6.30619 14.2386
50 1 13.4417 12.1723 6.29721
51 1 1.22686 1.25149 2.61505
52 1 1.66588 3.26295 11.2589
53 1 11.5667 5.91757 5.49018
54 1 2.13465 4.91383 3.49691
55 1 0.858518 0.16696 0.16317
56 1 5.32829 0.621852 0.70548
57 1 7.68286 3.52147 13.1543
58 1 13.1974 4.43318 7.97094
59 1 14.3651 1.46 3.41693
60 1 13.2768 8.46746 0.525278
61 1 1.23607 2.30413 5.13614
62 1 14.2372 5.47055 13.2452
63 1 0.552175 1.98326 11.8587
64 1 12.5251 4.46356 14.0275
65 1 13.2536 0.0394648 3.98223
66 1 11.2186 1.60472 9.64273
67 1 10.6838 14.2274 3.46142
68 1 8.62374 4.06233 12.8784
69 1 0.99876 3.60428 3.49495
70 1 3.90756 11.3622 14.108
71 1 2.97169 11.1658 10.8253
72 1 14.8978 13.9547 0.846308
73 1 6.68617 7.42491 13.1097
74 1 2.87266 1.61763 11.702
75 1 2.73344 11.4025 1.68615
76 1 7.2959 0.101996 12.8157
77 1 4.15817 14.8998 14.1288
78 1 8.23007 5.86906 12.6242
79 1 5.48055 10.6366 11.1012
80 1 0.0267978 2.69993 8.12129
81 1 3.92695 4.76402 14.2155
82 1 11.4193 6.15723 1.20927
83 1 6.64982 10.1982 5.7506
84 1 5.13475 2.60006 10.8691
85 1 1.66021 1.3008 14.2628
86 1 13.4893 4.87532 11.9018
87 1 14.1623 10.1932 1.53932
88 1 8.04665 0.119966 1.55929
89 1 11.6163 12.8017 0.570552
90 1 10.3348 3.89058 10.0914
91 1 12.0775 3.93562 1.13344
92 1 10.602 14.0539 0.574857
93 1 2.01953 4.58872 5.91635
94 1 4.67373 14.6409 1.13856
95 1 6.94147 10.4703 7.83281
96 1 14.4894 7.10727 3.27046
97 1 14.3868 0.285291 2.53235
98 1 8.90665 5.70605 1.49837
99 1 8.36799 13.2924 13.5311
100 1 12.0244 9.18503 11.4078
101 1 8.72782 10.6005 13.2252
102 1 12.4437 1.89072 2.97482
103 1 3.26062 11.0619 6.50452
104 1 4.18551 3.21972 12.2845
105 1 0.416842 12.8474 5.61409
106 1 0.952619 10.5817 13.2977
107 1 14.6826 1.55342 2.41576
108 1 2.54152 0.71139 0.69904
109 1 14.0006 3.25099 13.262
110 1 3.39925 2.46855 12.1695
111 1 12.2524 2.44709 8.07927
112 1 4.26785 11.5614 5.23188
113 1 4.88288 1.50734 12.8105
114 1 3.02288 3.26488 8.5798
115 1 10.1777 14.5135 1.59745
116 1 0.0247224 2.0118 5.45901
117 1 6.1841 4.32132 10.0491
118 1 4.50916 5.88547 0.673496
119 1 9.06451 10.0535 8.49557
120 1 13.121 6.98548 10.0234
121 1 7.78943 1.79209 14.6604
122 1 14.2329 14.6815 4.5261
123 1 3.00796 11.8802 14.8293
124 1 1.95076 1.68752 9.04337
125 1 1.07046 14.2293 1.99149
126 1 9.4066 6.21156 10.0264
127 1 1.32551 1.85753 7.46789
128 1 2.07808 12.4212 13.9548
129 1 11.8517 3.56823 9.48963
130 1 9.95546 2.96362 9.18306
131 1 0.616387 5.70978 13.1536
132 1 6.77928 2.26907 1.17553
133 1 2.84354 8.93869 6.42331
134 1 2.46824 12.3189 12.7057
135 1 14.1362 1.19301 14.0689
136 1 14.0362 0.707476 5.01676
137 1 14.4405 10.0578 2.60843
138 1 7.06234 7.37332 3.00705
139 1 1.36147 2.52442 14.1837
140 1 1.91641 9.13873 0.567227
141 1 9.46629 8.51889 6.51352
142 1 7.45248 12.0738 6.2947
143 1 4.92875 3.69764 10.8199
144 1 3.24296 7.32538 4.92852
145 1 6.25662 10.6986 3.19285
146 1 12.1843 4.23938 0.104473
147 1 3.16482 13.052 1.33713
148 1 14.5089 11.8989 4.56689
149 1 6.16875 3.04708 8.49353
150 1 2.21829 5.02497 11.0809
151 1 13.8053 13.5607 0.53363
152 1 14.0035 2.91401 8.30832
153 1 8.62628 0.728194 13.7389
154 1 8.73213 12.0259 3.61101
155 1 13.9417 2.71176 2.55863
156 1 8.85855 7.64996 3.93641
157 1 1.60351 12.6542 6.20249
158 1 6.40138 10.7392 8.79809
159 1 6.02219 2.58266 11.9424
160 1 11.39 12.7875 3.32904
161 1 9.2998 11.1779 5.79769
162 1 12.2301 3.84386 7.88206
163 1 5.58823 11.9449 8.10173
164 1 1.74057 0.898727 11.7571
165 1 7.23543 5.0581 2.59374
166 1 5.96632 9.26827 3.58344
167 1 7.815 5.02087 0.998777
168 1 1.45095 13.5042 13.9953
169 1 4.00533 13.592 14.068
170 1 11.5532 0.0782227 2.91643
171 1 7.38763 12.1841 5.11771
172 1 9.12532 5.06079 7.54766
173 1 12.2455 5.56641 13.1601
174 1 1.95726 10.2299 5.54694
175 1 3.07257 1.96644 9.88914
176 1 1.857 10.4169 1.35991
177 1 6.13311 11.7748 6.71371
178 1 2.03818 3.36157 3.58699
179 1 2.47844 0.113578 2.2042
180 1 1.73176 9.52289 6.50731
181 1 1.68517 0.0306506 13.6597
182 1 3.81014 11.8385 10.6279
183 1 3.96738 7.80286 13.2772
184 1 10.4082 6.17435 0.392413
185 1 3.10057 12.6534 10.2482
186 1 9.51813 13.9064 2.53405
187 1 3.5808 0.957152 13.4487
188 1 1.88084 6.21693 0.36542
189 1 10.4004 12.9414 2.91947
190 1 9.61747 5.71162 8.62658
191 1 9.23907 8.50921 13.1468
192 1 9.18026 6.49201 12.4317
193 1 0.0288797 3.1805 0.442572
194 1 11.7565 3.66041 2.23854
195 1 6.16678 5.37448 14.49
196 1 13.1347 5.28137 5.0578
197 1 8.16897 13.0196 0.629321
198 1 12.6454 7.53684 14.8022
199 1 5.12657 4.57369 9.3605
200 1 11.1362 1.41076 1.14022
201 1 0.919342 9.34489 4.74172
202 1 9.82329 10.0703 7.64434
203 1 9.41063 7.93917 7.57503
204 1 3.04325 13.0428 13.4293
205 1 14.7115 9.84478 3.80544
206 1 2.06305 3.82802 12.3448
207 1 3.19586 13.106 12.252
208 1 3.17653 5.1593 12.962
209 1 6.21003 11.6832 4.19208
210 1 12.1477 10.1567 11.8417
211 1 14.3789 13.0831 5.01022
212 1 6.44973 3.43553 7.27181
213 1 11.2171 4.04129 7.90721
214 1 14.353 2.9288 1.42464
215 1 9.58423 4.29759 2.98609
216 1 10.5049 13.1095 11.0974
217 1 6.25213 9.75397 13.0443
218 1 2.25059 1.15275 2.59111
219 1 12.8835 11.2585 6.27967
220 1 6.43339 1.26978 1.62429
221 1 3.71131 9.23929 13.0748
222 1 7.64719 4.04867 3.98801
223 1 12.9614 5.6146 0.00162995
224 1 13.8775 0.692356 6.12944
225 1 11.3745 7.18099 14.7887
226 1 10.9601 2.95776 9.37435
227 1 9.88759 3.97139 8.86001
228 1 11.5545 3.16147 8.42596
229 1 0.839765 13.9557 14.895
230 1 1.01282 8.22419 13.133
231 1 9.63204 4.19414 13.7797
232 1 3.55465 14.1272 0.0414385
233 1 0.439988 0.0153923 2.33263
234 1 3.50609 9.44803 4.95786
235 1 3.10697 3.36382 11.7796
236 1 0.418596 9.135 13.7544
237 1 6.89453 10.4901 11.828
238 1 8.1623 9.00453 2.76045
239 1 2.2126 1.50087 10.1125
240 1 11.1222 3.91023 11.6806
241 1 4.00546 10.9235 11.4604
242 1 4.59635 10.5687 4.98622
243 1 14.5121 14.1052 13.3733
244 1 0.298768 1.80009 7.46234
245 1 0.349198 6.93163 2.20943
246 1 12.7218 6.9557 1.81805
247 1 7.37801 2.12141 4.35455
248 1 7.0132 12.4606 4.00472
249 1 14.0048 4.44713 13.7784
250 1 1.0989 5.25037 14.1267
251 1 2.64717 8.19856 14.7247
252 1 4.07791 6.70361 4.06786
253 1 1.71978 4.8595 4.48773
254 1 2.58111 10.1136 3.09651
255 1 1.94428 12.25 10.5092
256 1 3.79467 14.6248 6.75817
257 1 9.9177 10.4377 13.2445
258 1 2.86017 14.8353 13.7502
259 1 0.051291 1.19631 14.7258
260 1 6.39814 12.5454 7.53089
261 1 12.2117 7.65912 6.44482
262 1 9.94084 5.28462 6.67978
263 1 12.2728 2.63011 2.16034
264 1 13.8961 12.2011 12.9874
265 1 4.562 14.0542 0.313577
266 1 14.1868 9.11389 1.59342
267 1 5.03648 4.23118 11.9156
268 1 3.08402 4.89061 14.7922
269 1 6.14173 7.48406 14.3266
270 1 0.38188 2.26376 0.0333904
271 1 0.755217 2.20321 2.51007
272 1 2.32862 2.84703 10.053
273 1 1.38874 5.68927 5.19091
274 1 1.15867 2.46946 3.93967
275 1 1.56492 9.13076 12.9216
276 1 12.1809 1.52633 8.91685
277 1 8.89717 6.03243 13.3995
278 1 12.8713 4.46035 9.11596
279 1 13.6882 6.3144 4.82208
280 1 9.38395 14.1218 0.472057
281 1 4.25615 12.6144 1.91644
282 1 3.4077 13.2396 2.49608
283 1 9.70637 6.74163 13.3264
284 1 3.89582 4.76315 0.596324
285 1 11.1093 10.9603 10.3145
286 1 13.1991 8.00338 6.13162
287 1 12.8034 4.71362 0.84547
288 1 0.444455 13.1546 11.2805
289 1 13.5854 12.428 5.15341
290 1 12.0978 6.80942 5.38377
291 1 7.14043 0.656778 2.28375
292 1 8.30634 2.54556 1.44977
293 1 10.6266 2.81667 0.822067
294 1 14.7519 3.86846 8.2652
295 1 14.6105 7.60053 8.71609
296 1 9.30433 13.6306 13.0653
297 1 8.35121 5.12621 13.717
298 1 10.3301 1.14911 9.52138
299 1 0.36042 3.00786 14.0072
300 1 13.005 2.05259 7.06044
301 1 0.164787 9.9544 5.25092
302 1 9.85608 5.94385 14.3963
303 1 5.82623 2.7331 14.5823
304 1 8.74437 13.1463 3.01133
305 1 13.6999 2.4077 12.0906
306 1 0.50305 8.9551 7.76605
307 1 12.2129 5.4777 14.1453
308 1 5.1708 9.94155 7.13548
309 1 2.20682 4.27535 9.09368
310 1 10.6518 4.89043 8.58094
311 1 11.3009 9.37974 12.9628
312 1 1.67267 2.1867 3.05104
313 1 8.85091 9.64154 5.86579
314 1 3.97622 1.59347 10.1041
315 1 4.19369 8.07617 0.471269
316 1 7.08318 10.9023 10.6085
317 1 8.27407 14.8002 13.1946
318 1 7.52611 4.94922 12.8061
319 1 8.55084 0.979412 1.29168
320 1 3.33432 13.7166 6.33646
321 1 3.39856 8.6404 9.83445
322 1 8.23926 9.165 12.7687
323 1 2.17193 12.2767 2.32342
324 1 4.11141 2.92279 11.2919
325 1 7.98697 11.8247 2.23991
326 1 13.9974 3.96809 11.0732
327 1 13.8094 11.2938 3.23881
328 1 8.60099 2.00481 0.388755
329 1 8.89778 4.04026 1.1756
330 1 12.4217 5.93595 4.77227
331 1 8.38273 13.9537 1.14139
332 1 9.11895 9.47577 6.85753
333 1 3.58675 4.14378 12.4671
334 1 4.36278 11.789 7.72314
335 1 8.37464 10.5912 3.13674
336 1 1.94604 14.056 1.47644
337 1 14.4361 3.58161 14.3065
338 1 13.3269 7.05051 0.837319
339 1 2.79959 14.0264 2.03193
340 1 8.8569 14.0159 3.71154
341 1 1.14698 1.24091 0.306262
342 1 3.77655 6.03905 9.9725
343 1 9.85179 4.4646 0.601499
344 1 9.21538 12.9478 1.13991
345 1 2.22317 2.23399 4.12776
346 1 9.22851 0.996895 10.6599
347 1 14.5383 1.01037 7.8423
348 1 0.977931 10.4118 6.31099
349 1 6.51055 9.03791 5.64303
350 1 6.43521 4.49349 5.33726
351 1 2.623 6.00506 14.4847
352 1 9.86642 6.8667 2.39065
353 1 13.2889 14.0717 13.3943
354 1 3.28998 6.23133 4.57894
355 1 12.0114 4.67948 9.85076
356 1 10.9692 14.0359 12.6614
357 1 6.11599 3.30415 10.5209
358 1 1.31371 0.0821182 7.44574
359 1 6.69176 5.20312 8.25094
360 1 0.00899474 0.958941 5.40729
361 1 11.8154 12.0038 10.1985
362 1 0.265003 13.2115 13.9968
363 1 10.1712 8.98801 7.25836
364 1 3.62316 6.99844 14.8956
365 1 3.20581 11.903 13.5366
366 1 0.671186 2.7056 6.06079
367 1 13.1827 9.75141 1.66579
368 1 3.27678 2.63273 4.34242
369 1 5.87085 9.57925 6.39162
370 1 2.06653 1.86494 1.19168
371 1 8.1566 4.97882 4.22129
372 1 11.1613 2.07943 8.71735
373 1 12.2954 6.66862 13.2779
374 1 8.91473 0.0072671 2.63003
375 1 2.65481 11.1502 7.3256
376 1 12.5396 14.4696 0.874668
377 1 2.74013 1.59228 14.8015
378 1 6.32763 11.9057 8.7839
379 1 2.62393 12.1282 6.68343
380 1 10.48 6.38938 9.7825
381 1 13.6298 13.8396 4.94718
382 1 6.02787 13.401 6.97211
383 1 0.562145 6.19393 14.3015
384 1 1.85226 0.766043 1.633
385 1 4.02797 4.02288 11.4903
386 1 2.87644 11.0698 0.679145
387 1 8.96829 9.9914 4.28777
388 1 4.65532 7.22209 1.20266
389 1 9.50134 13.8128 14.2575
390 1 0.64636 9.87613 1.27425
391 1 9.55989 8.6903 11.9896
392 1 2.18731 9.9497 12.6086
393 1 2.02446 2.70569 13.3143
394 1 11.5258 6.27416 13.8729
395 1 10.9554 0.847503 2.15504
396 1 12.0833 0.618074 5.16745
397 1 4.62915 0.522032 1.96629
398 1 11.2109 4.93911 0.710476
399 1 2.01613 11.1516 4.16618
400 1 2.35552 4.66724 14.0156
401 1 4.3933 6.1654 10.7745
402 1 4.91161 14.3897 2.56446
403 1 2.90988 4.10896 13.2594
404 1 9.65276 11.8872 4.34719
405 1 7.07237 5.7406 0.15827
406 1 5.94415 4.31195 8.66758
407 1 7.12705 5.03679 5.91545
408 1 9.89311 5.92943 1.63872
409 1 12.3331 10.9117 9.36126
410 1 9.45044 0.301477 7.01795
411 1 2.52256 13.594 14.3454
412 1 8.42515 7.70661 12.6953
413 1 7.44867 2.95817 3.68422
414 1 8.0323 2.96418 14.8163
415 1 8.33783 4.66285 11.9953
416 1 10.1813 6.65349 12.1521
417 1 13.9604 5.70163 0.70963
418 1 10.7498 4.1763 1.32474
419 1 8.84705 2.34512 6.467
420 1 7.9628 4.34004 2.83974
421 1 10.4741 3.28515 8.31219
422 1 4.65571 11.9229 8.84861
423 1 13.5291 13.1782 12.7787
424 1 5.43368 3.4866 13.1866
425 1 2.58106 3.55254 10.7767
426 1 6.0696 4.43577 7.59792
427 1 11.987 6.93556 11.3926
428 1 3.66478 11.3606 8.59025
429 1 9.25004 5.1364 3.70394
430 1 1.15667 4.14656 0.431469
431 1 1.26968 3.16445 9.55467
432 1 7.99068 10.5744 6.06958
433 1 13.4791 13.2123 5.92156
434 1 8.08157 4.89202 14.8342
435 1 5.50521 6.04669 1.96776
436 1 7.33873 3.20804 1.48555
437 1 0.993414 0.494071 3.58425
438 1 5.23508 1.64861 1.45025
439 1 4.79627 11.42 6.72382
440 1 12.3691 10.5535 7.6111
441 1 13.3388 1.98191 3.59592
442 1 1.41261 7.48594 0.457218
443 1 13.7314 12.6623 1.75493
444 1 1.3652 9.98307 14.0344
445 1 11.3836 12.3126 11.3894
446 1 10.663 12.4019 14.4019
447 1 0.929617 2.0122 10.7137
448 1 14.4482 11.9007 2.1968
449 1 8.42505 8.55917 6.05506
450 1 9.74305 13.4751 3.73422
451 1 6.17173 9.25643 14.1125
452 1 5.00267 5.64717 9.96683
453 1 12.6335 1.20626 7.82028
454 1 11.6564 2.77895 1.13658
455 1 4.7458 4.08689 0.194587
456 1 4.70376 13.5272 6.44942
457 1 2.58526 8.6698 13.0392
458 1 11.6888 14.1203 0.426881
459 1 14.8614 4.94042 12.5614
460 1 9.05087 11.1063 1.07455
461 1 11.9285 0.688557 1.75831
462 1 12.6264 3.36026 8.67878
463 1 13.1096 5.89133 13.807
464 1 8.61963 8.7018 4.30236
465 1 1.44067 3.92752 13.1402
466 1 1.81073 7.45078 14.2935
467 1 4.16714 10.1383 2.37525
468 1 8.20485 11.4147 5.40117
469 1 14.9287 12.1676 11.6787
470 1 6.78823 3.54632 4.80518
471 1 3.31365 9.20927 2.83144
472 1 11.2693 13.3177 13.5404
473 1 5.42764 4.96009 0.420164
474 1 12.563 8.69534 12.2308
475 1 14.4465 13.3392 12.1395
476 1 13.0324 13.5109 1.50167
477 1 3.63588 8.96783 11.381
478 1 13.9641 11.139 6.87592
479 1 2.2081 13.085 0.36429
480 1 9.91299 7.26546 9.94748
481 1 11.484 11.996 1.3859
482 1 2.02361 12.473 11.6983
483 1 2.93798 5.46941 11.9766
484 1 1.7947 14.8727 0.718687
485 1 11.5753 4.70011 5.7832
486 1 0.732093 0.961192 8.2365
487 1 4.7405 13.1707 14.8091
488 1 6.46905 3.1891 0.45718
489 1 9.36357 0.30426 12.1342
490 1 9.35448 1.99889 1.07282
491 1 8.28417 13.4979 14.63
492 1 10.8541 6.3502 11.0042
493 1 11.9085 5.70452 10.5567
494 1 3.24942 8.5032 0.630293
495 1 13.9098 2.22897 4.53888
496 1 12.515 7.07444 4.41754
497 1 2.91408 11.4118 2.94773
498 1 3.78536 11.9265 6.71333
499 1 3.71789 1.46655 12.4307
500 1 13.6028 2.71801 6.35925
501 1 11.0071 4.01857 9.07495
502 1 5.52119 8.16083 12.3724
503 1 2.87412 10.0088 6.17145
504 1 5.05204 7.25654 14.1792
505 1 13.1431 10.4977 5.23797
506 1 5.71475 9.96097 5.3549
507 1 9.04667 10.7653 2.25296
508 1 1.25513 7.81819 7.5868
509 1 4.68568 11.9536 9.97527
510 1 0.0285307 11.9617 14.4201
511 1 14.7374 7.92694 6.38011
512 1 6.30105 5.60588 2.63588
513 1 14.4725 14.7885 5.9358
514 1 13.7991 1.89895 7.94394
515 1 3.61911 14.223 13.2756
516 1 13.459 1.76485 0.0625134
517 1 10.7992 10.1283 13.841
518 1 6.90096 10.6284 13.302
519 1 1.87061 3.43851 1.2968
520 1 4.59971 2.25716 11.9866
521 1 1.17643 4.64936 11.4025
522 1 8.20452 7.98304 3.23195
523 1 10.5936 12.9251 12.3322
524 1 8.18946 1.82222 5.29122
525 1 1.8974 13.1833 12.6596
526 1 2.24334 2.62012 2.08954
527 1 6.5852 3.96871 6.34798
528 1 0.44737 4.56305 14.8377
529 1 1.15675 5.74185 11.2792
530 1 8.50525 3.40873 3.60567
531 1 6.59259 13.0308 8.67574
532 1 11.0673 5.32193 13.608
533 1 10.6052 12.3038 3.8874
534 1 1.07727 12.7377 13.269
535 1 9.17845 5.32031 12.51
536 1 9.19257 1.64994 5.54286
537 1 5.40914 12.2833 10.763
538 1 11.3377 2.64381 10.3423
539 1 3.45361 3.14619 13.7344
540 1 3.23085 10.0704 11.1531
541 1 2.06004 2.57136 8.02642
542 1 9.90471 1.17672 11.5737
543 1 12.8849 14.16 3.43789
544 1 11.4485 7.99075 13.1237
545 1 11.1261 0.399867 4.55697
546 1 12.4187 10.3203 10.3997
547 1 6.89067 0.0769169 1.19126
548 1 4.73762 4.89086 1.26302
549 1 14.1443 7.45621 13.4912
550 1 0.931373 9.47229 5.85569
551 1 8.36103 5.57719 5.61452
552 1 3.13958 4.57815 11.4124
553 1 9.62945 9.82891 2.03656
554 1 10.3287 13.9314 13.6767
555 1 13.0145 7.12547 13.9682
556 1 1.88494 10.9917 2.54364
557 1 14.6037 0.450153 6.97746
558 1 3.68726 12.0347 12.4052
559 1 4.2777 6.73833 13.6675
560 1 11.0008 0.344996 1.19209
561 1 0.957663 13.8423 5.48741
562 1 7.60043 11.2357 6.97771
563 1 14.1874 6.12701 3.23059
564 1 6.8097 11.3602 9.61012
565 1 2.14282 11.1544 6.10713
566 1 7.79824 3.48784 11.9687
567 1 1.49039 10.1337 3.73837
568 1 7.809 10.1464 12.4923
569 1 11.1538 8.22561 14.7595
570 1 14.1159 6.70629 12.7721
571 1 10.8831 13.4031 14.7126
572 1 9.16158 4.87345 14.4393
573 1 1.09092 4.88952 12.5738
574 1 13.0411 1.00212 5.50678
575 1 12.5276 9.33722 13.0334
576 1 5.07869 8.80486 6.69631
577 1 2.998 11.3645 5.35075
578 1 12.0293 6.514 9.69619
579 1 5.82772 9.90019 7.94706
580 1 11.3177 5.38528 3.58104
581 1 4.71173 11.4714 10.9738
582 1 11.219 4.66363 2.77067
583 1 14.2273 3.01981 5.45973
584 1 0.853101 14.4658 4.62149
585 1 7.6119 9.39767 11.7632
586 1 12.585 5.7242 9.31848
587 1 8.20027 5.85949 0.394774
588 1 13.3815 8.01933 1.77589
589 1 12.5701 5.94287 5.94388
590 1 13.5252 7.89626 3.14269
591 1 11.807 4.69239 1.77144
592 1 14.2097 6.35724 13.8893
593 1 4.28843 12.9966 0.894561
594 1 1.49522 12.5933 5.11141
595 1 7.36557 12.147 1.45684
596 1 14.0362 1.34308 0.809214
597 1 4.45659 12.2966 5.94613
598 1 3.33181 2.67783 10.7017
599 1 6.55858 9.9416 4.75286
600 1 13.7829 3.44278 0.30464
601 1 5.29899 10.5575 6.18352
602 1 1.09224 11.8328 11.2119
603 1 7.74931 7.15037 2.08992
604 1 8.76602 0.151411 3.69144
605 1 3.77606 2.32386 8.918
606 1 10.7466 5.50866 1.87039
607 1 7.09994 11.1651 1.97707
608 1 13.9909 4.20448 12.6196
609 1 0.735918 10.3234 4.35945
610 1 0.0592697 5.21226 0.981395
611 1 2.25993 14.2783 7.51774
612 1 1.36026 2.62723 12.0467
613 1 8.77225 14.4282 11.8423
614 1 14.2328 6.28222 9.99262
615 1 3.73043 9.65198 10.2256
616 1 7.3307 12.3326 9.52663
617 1 8.62374 7.08671 14.4506
618 1 2.36574 3.49736 13.9119
619 1 11.5977 0.737369 14.3832
620 1 14.4246 8.09194 2.22468
621 1 6.45046 1.16242 0.527461
622 1 12.3655 12.4558 1.84568
623 1 13.5337 11.1003 4.23142
624 1 11.9603 2.55213 9.32846
625 1 8.26107 13.8815 12.621
626 1 8.28357 8.10386 2.23779
627 1 7.82499 6.61631 3.14473
628 1 8.62037 0.382401 5.61162
629 1 2.88737 10.3289 1.99824
630 1 10.0674 0.733136 5.09712
631 1 13.5656 5.9269 12.4728
632 1 10.3471 4.82731 12.1142
633 1 0.695123 1.80227 6.5348
634 1 10.3079 9.21686 6.0511
635 1 8.44429 0.908642 4.66486
636 1 6.12143 5.13228 1.60241
637 1 13.8356 11.3768 5.72375
638 1 4.21291 3.82762 13.457
639 1 3.79532 13.923 1.06527
640 1 10.1178 13.0319 0.490433
641 1 8.86128 5.0095 0.698077
642 1 13.8062 3.82598 6.16561
643 1 5.7529 3.51474 11.5766
644 1 2.63266 6.20886 11.2318
645 1 13.1418 11.5112 11.5519
646 1 11.8641 7.43878 13.8698
647 1 8.51617 6.61357 5.37883
648 1 3.95036 13.177 5.53497
649 1 2.34358 13.0593 3.26013
650 1 1.83641 11.9352 3.2815
651 1 11.3756 4.81691 14.5185
652 1 13.7713 12.3587 11.7933
653 1 8.74259 6.94299 2.34843
654 1 8.45449 8.40982 7.20592
655 1 7.1171 7.99609 14.1148
656 1 8.31704 9.54399 3.64883
657 1 5.70062 7.03595 13.226
658 1 1.85512 13.2982 10.0223
659 1 10.6654 8.71517 4.88
660 1 3.96702 8.45814 6.59463
661 1 11.4655 13.5397 11.8017
662 1 0.95752 3.45115 8.44372
663 1 10.4222 11.2591 2.04603
664 1 7.73545 4.41205 5.2321
665 1 4.33734 8.05982 7.78014
666 1 10.2486 1.90725 10.4941
667 1 12.5466 12.4474 11.5779
668 1 5.75581 11.8655 9.59587
669 1 13.419 6.53216 14.7336
670 1 13.0064 4.04303 6.95331
671 1 11.6491 13.8433 3.09698
672 1 6.61769 5.73645 5.05613
673 1 10.6021 8.67809 12.4854
674 1 8.03077 9.5775 4.76318
675 1 13.8107 5.29755 14.4011
676 1 13.0431 7.56564 13.0043
677 1 3.04104 2.19454 13.5724
678 1 8.86388 6.68393 3.44939
679 1 3.428 5.79916 0.197781
680 1 11.9485 11.2104 10.9169
681 1 9.11589 7.69566 11.7607
682 1 2.58886 2.88761 0.586359
683 1 14.7403 6.48621 0.317508
684 1 3.58766 9.46083 7.13354
685 1 5.25826 3.12577 7.85356
686 1 7.29727 11.3164 3.12554
687 1 11.7246 4.54749 8.62286
688 1 8.89244 6.00713 14.5629
689 1 0.622647 14.7835 8.16626
690 1 6.7297 1.94525 13.5212
691 1 4.52161 12.8437 8.21078
692 1 0.621376 2.84869 7.14101
693 1 12.4617 3.3717 4.93967
694 1 14.5963 1.38615 4.38546
695 1 6.07461 5.27613 6.33185
696 1 1.00734 3.69301 12.0579
697 1 14.0199 9.83963 6.18666
698 1 2.64687 2.39433 3.10315
699 1 3.37195 1.29089 9.18751
700 1 9.55067 12.5091 14.0379
701 1 2.56352 2.56504 14.4078
702 1 1.27964 2.75823 0.679843
703 1 3.72305 0.000780361 1.66968
704 1 11.0042 13.3937 1.47485
705 1 5.31252 6.07043 14.1395
706 1 2.39965 11.2485 13.7404
707 1 4.5226 12.1584 14.4008
708 1 9.42547 12.039 0.231002
709 1 14.4212 4.64338 0.30485
710 1 14.3102 10.4616 4.71703
711 1 4.31253 8.05512 14.4172
712 1 7.54675 4.03193 0.876616
713 1 7.33937 10.1202 6.79031
714 1 9.11661 14.5822 1.55411
715 1 10.4118 11.8591 2.85329
716 1 5.91578 12.6357 6.11224
717 1 9.32686 5.95792 2.54435
718 1 7.95299 10.1034 7.73496
719 1 3.60535 12.7423 14.3955
720 1 8.60977 2.2375 3.89942
721 1 6.38111 6.38394 3.62418
722 1 11.2732 6.91996 12.9791
723 1 1.79947 8.46637 6.82144
724 1 6.77812 3.88834 13.5283
725 1 5.16447 12.4899 7.10716
726 1 13.656 6.9262 2.25319
727 1 6.8759 4.0088 11.7808
728 1 0.738887 13.2037 4.4907
729 1 12.4004 8.33586 13.1977
730 1 6.97669 11.293 5.60877
731 1 1.3182 11.9625 1.59376
732 1 14.8889 12.8138 2.95562
733 1 3.88424 1.88305 11.2988
734 1 1.89582 14.0245 2.69465
735 1 8.09815 9.37103 6.75081
736 1 9.18956 11.07 14.4254
737 1 13.1045 10.2967 6.55808
738 1 7.64601 7.10283 13.7531
739 1 2.23252 0.306325 14.5817
740 1 6.89713 13.0219 0.44577
741 1 2.77798 0.917916 12.564
742 1 8.97394 9.01556 7.80853
743 1 7.96893 13.0072 9.99449
744 1 8.1236 10.9624 1.59819
745 1 6.78631 4.85272 0.592539
746 1 8.16331 5.57395 3.28392
747 1 9.81913 7.6112 12.6792
748 1 7.93837 3.23363 4.77835
749 1 7.9267 14.7336 6.44977
750 1 10.8155 0.2973 13.7476
751 1 11.2166 14.4088 1.74836
752 1 3.74081 12.0337 9.53199
753 1 6.00208 4.41313 12.3045
754 1 12.7046 7.21348 3.07539
755 1 0.86832 13.0075 2.29936
756 1 9.94072 10.6318 4.11068
757 1 10.3252 0.553001 3.84445
758 1 7.80068 12.5709 3.18101
759 1 11.1572 5.53912 9.32798
760 1 14.467 7.29444 1.57324
761 1 4.42104 6.46776 2.16369
762 1 3.80842 11.4724 1.79317
763 1 8.6161 1.28668 6.64602
764 1 7.28882 13.3637 1.42675
765 1 8.22136 11.0962 4.30013
766 1 9.83192 14.9301 11.2926
767 1 13.7562 14.9195 13.7792
768 1 6.90881 12.2042 2.42424
769 1 5.35781 11.5845 5.77969
770 1 13.0722 6.18794 2.80108
771 1 14.7063 14.2602 14.5955
772 1 11.0695 2.97601 1.98707
773 1 9.18328 7.67779 13.7546
774 1 0.630053 11.9567 2.50809
775 1 12.5435 4.66137 3.53594
776 1 9.57893 4.86721 1.54788
777 1 7.73529 11.9162 10.5751
778 1 7.25662 5.56513 3.86476
779 1 13.6307 8.86978 2.64396
780 1 14.8376 2.53853 3.388
781 1 10.7044 13.8303 2.49881
782 1 13.4811 10.0533 8.85467
783 1 14.6986 3.3852 6.52777
784 1 12.7586 10.8477 1.62192
785 1 2.66994 9.08634 10.6231
786 1 5.43245 11.1087 8.77745
787 1 12.5508 7.77247 1.01404
788 1 2.89833 12.8537 5.86713
789 1 7.60278 1.5099 3.47312
790 1 1.44669 9.77709 2.34231
791 1 14.6791 1.42889 6.44374
792 1 0.461528 1.7467 3.65443
793 1 1.73039 12.9574 1.60445
794 1 7.81849 8.42208 11.3112
795 1 13.8444 4.52356 4.87557
796 1 7.27739 3.31237 5.95042
797 1 0.532614 10.8399 1.94676
798 1 6.40613 8.44075 13.4279
799 1 0.595056 10.1584 2.88949
800 1 8.43852 3.13067 5.78973
801 1 8.14509 14.1308 2.83318
802 1 2.7359 10.2748 4.5765
803 1 14.6187 0.674661 12.0172
804 1 0.397032 7.00223 13.4674
805 1 9.63517 10.3973 6.46054
806 1 10.8712 11.2795 3.68652
807 1 7.56984 10.4802 5.08527
808 1 13.2607 2.49451 8.96864
809 1 8.36931 13.0403 1.77758
810 1 8.21524 0.798695 2.97587
811 1 14.805 9.23147 6.01365
812 1 11.1347 0.79734 8.7975
813 1 1.12866 1.94003 1.50796
814 1 10.7021 7.09773 13.8597
815 1 13.8391 4.70749 1.16494
816 1 4.0473 12.7658 7.27902
817 1 13.9132 3.55978 7.50863
818 1 2.48974 12.834 4.58648
819 1 5.75922 5.57307 4.21734
820 1 12.1082 5.70713 0.557826
821 1 7.62592 1.54499 1.03588
822 1 13.6181 8.88581 8.64036
823 1 3.63277 5.44031 1.37968
824 1 5.18139 13.4972 7.54956
825 1 5.70478 0.378168 1.89411
826 1 12.7905 11.804 12.5926
827 1 5.76277 8.69446 4.48738
828 1 0.646667 8.72562 6.5713
829 1 1.36039 4.16398 14.1901
830 1 13.3999 11.6873 1.46889
831 1 13.0732 0.600485 0.856796
832 1 1.00288 2.33768 8.40435
833 1 10.0766 14.7182 12.8849
834 1 14.7593 0.682674 9.14254
835 1 7.53946 4.04932 14.7656
836 1 12.8233 3.32818 0.570048
837 1 10.3864 6.96856 1.28686
838 1 14.3128 3.2209 10.2793
839 1 11.9184 0.66723 0.531105
840 1 4.04175 3.83217 1.07461
841 1 13.8429 1.86809 5.50812
842 1 5.22243 6.2429 2.93422
843 1 12.5529 11.4422 8.55143
844 1 7.80008 7.61661 5.97413
845 1 10.0533 11.9716 10.5378
846 1 2.39485 4.14499 4.65516
847 1 14.6342 9.1558 2.90109
848 1 8.4601 4.12585 14.0351
849 1 5.41825 8.89017 5.40548
850 1 7.13597 4.40549 1.72608
851 1 11.2433 12.1106 2.39186
852 1 7.00053 11.5592 7.74665
853 1 0.9377 6.45044 0.50573
854 1 1.29936 1.91176 13.257
855 1 12.9502 8.40002 14.1328
856 1 6.14505 11.2424 10.5134
857 1 7.56063 10.2906 3.95696
858 1 6.91224 2.87161 14.1123
859 1 14.4402 3.51792 4.24899
860 1 4.215 4.98311 10.8971
861 1 7.09695 8.7025 2.35534
862 1 5.98105 12.5052 14.7824
863 1 6.4389 2.19536 7.05835
864 1 3.15846 12.2429 2.11942
865 1 11.3995 10.0593 11.1189
866 1 9.73979 14.5201 3.43687
867 1 3.36298 6.76994 0.959988
868 1 11.9952 14.5632 4.03481
869 1 9.29536 6.9493 1.13234
870 1 8.15791 11.1467 7.93083
871 1 12.7518 3.40911 5.98613
872 1 8.88031 4.96939 2.45726
873 1 8.54398 11.7629 13.9313
874 1 11.1323 10.63 7.56845
875 1 2.21385 9.16108 7.49609
876 1 8.92092 3.05096 0.447079
877 1 13.1343 7.73024 11.8144
878 1 2.36413 2.68443 11.9908
879 1 1.41972 13.4022 11.6435
880 1 14.1558 7.74383 4.34266
881 1 14.817 5.52267 14.7171
882 1 13.5597 6.8226 3.90943
883 1 5.06498 11.0193 7.64432
884 1 6.69981 6.41112 13.9648
885 1 9.66897 0.399814 2.07759
886 1 7.15857 9.50521 3.16518
887 1 14.5244 2.441 9.16116
888 1 8.62469 12.1176 1.49943
889 1 10.8536 14.348 11.2932
890 1 4.48206 0.255052 0.241846
891 1 14.7436 13.0841 1.66052
892 1 1.96576 5.01644 14.898
893 1 8.05362 6.74159 4.26448
894 1 13.0962 2.93403 7.75792
895 1 2.35643 2.26739 10.9733
896 1 4.05292 2.20497 14.0245
897 1 13.1411 7.95813 4.30109
898 1 1.53586 14.7351 8.93796
899 1 9.90717 13.5716 1.48099
900 1 6.30992 12.1077 5.24354
901 1 11.1612 7.0898 5.9454
902 1 7.58438 5.85802 14.0594
903 1 0.971672 11.158 3.16227
904 1 0.761758 2.84848 1.71847
905 1 1.84022 2.05444 0.1363
906 1 4.02852 9.46053 6.17206
907 1 14.8308 11.0344 2.78029
908 1 8.69292 3.9772 0.112679
909 1 11.8917 4.11727 6.72586
910 1 0.624923 0.87869 7.21052
911 1 0.168783 3.89916 13.185
912 1 9.31736 9.81229 13.8227
913 1 2.44111 7.16233 0.649453
914 1 12.5562 1.63606 4.50828
915 1 5.67085 12.8562 4.8706
916 1 14.7931 13.2478 0.0059963
917 1 0.300168 14.9118 13.5655
918 1 14.3197 12.5762 0.743541
919 1 3.3669 3.83998 0.0558407
920 1 5.50233 12.8972 8.84119
921 1 14.2993 2.35096 0.499737
922 1 8.04701 8.23855 13.5427
923 1 3.69034 0.864893 0.758457
924 1 4.40866 13.7175 1.90314
925 1 1.71898 5.67312 13.329
926 1 0.195346 1.50571 0.804755
927 1 7.14673 4.80301 14.0889
928 1 11.7419 8.60533 14.0353
929 1 6.16261 10.5521 6.75734
930 1 3.12884 6.18302 13.4349
931 1 9.52879 12.9011 2.26268
932 1 1.48788 12.7311 3.95761
933 1 9.69683 12.0084 1.72367
934 1 0.899169 5.31526 0.447109
935 1 2.73215 7.16927 12.1335
936 1 6.09239 6.83702 2.67721
937 1 10.6305 11.0911 4.82052
938 1 12.4031 14.7215 11.9381
939 1 2.43808 0.910584 13.542
940 1 2.84403 7.43513 13.6936
941 1 4.00798 12.0514 0.371048
942 1 13.0182 5.88321 1.4375
943 1 4.26392 5.58303 5.05883
944 1 8.5658 10.4594 5.14031
945 1 7.95037 8.55208 5.047
946 1 10.8924 7.48248 12.1906
947 1 1.93562 0.63473 8.44043
948 1 9.94983 6.74032 8.35434
949 1 12.9052 1.92019 9.91212
950 1 2.77695 14.5414 1.11753
951 1 7.29269 6.82053 14.8049
952 1 12.2498 3.12454 7.07194
953 1 10.0564 1.11705 1.12212
954 1 1.13071 1.32741 4.48248
955 1 0.295404 9.19593 2.07133
956 1 10.8224 5.91922 8.14052
957 1 5.37999 9.74161 4.41574
958 1 3.30453 13.1272 0.371107
959 1 10.3931 14.9088 2.68613
960 1 12.2723 6.49483 14.5958
961 1 9.1794 13.1293 0.0748855
962 1 11.1783 5.75678 14.8518
963 1 0.671636 2.82264 12.9531
964 1 13.0128 11.5874 7.39602
965 1 9.81393 5.67995 11.4503
966 1 13.4579 14.8449 5.42048
967 1 13.1004 5.71754 3.90412
968 1 0.484768 11.4961 4.45009
969 1 6.44363 3.39755 12.6683
970 1 5.24708 6.70001 0.27162
971 1 12.7819 6.7601 12.4009
972 1 0.0851494 4.15939 11.8939
973 1 0.260187 14.4338 6.97475
974 1 6.06085 10.9607 5.08812
975 1 12.9111 12.541 0.945401
976 1 10.619 14.4435 14.5405
977 1 1.46071 0.180792 2.47922
978 1 5.34579 10.9133 9.92225
979 1 8.09412 3.83176 1.84929
980 1 0.258681 2.34904 4.56382
981 1 6.1134 11.1001 7.71514
982 1 1.74606 1.30848 3.59549
983 1 13.4172 4.41132 14.7764
984 1 10.6174 5.12324 10.4723
985 1 14.3968 0.258879 0.286788
986 1 1.5702 3.3563 14.8546
987 1 9.70013 6.10401 7.53935
988 1 10.776 10.1307 11.9846
989 1 2.31545 3.9561 0.164299
990 1 12.0399 3.29083 10.8627
991 1 2.92128 4.0638 1.20695
992 1 7.42104 13.3275 2.48586
993 1 12.0595 7.63411 12.4384
994 1 7.60232 5.41256 4.92689
995 1 14.2089 8.28765 5.29392
996 1 13.7364 7.63663 14.5911
997 1 2.89865 11.8499 11.523
998 1 0.416443 1.68447 13.739