ITEM: TIMESTEP
100000
ITEM: NUMBER OF ATOMS
1000
ITEM: BOX BOUNDS pp pp pp
0.0000000000000000e+00 2.7144176165949062e+01
0.0000000000000000e+00 2.7144176165949062e+01
0.0000000000000000e+00 2.7144176165949062e+01
ITEM: ATOMS id type x y z
1 1 15.4032 16.5645 25.6382
2 1 3.1883 5.95754 16.115
3 1 16.9966 0.279837 11.4836
4 1 20.3805 7.77856 18.9751
5 1 2.95818 0.566124 19.8135
6 1 3.32108 10.8828 22.8965
7 1 2.31162 1.63271 23.3599
8 1 1.3818 4.63078 25.0103
9 1 11.6725 18.398 21.4564
10 1 3.36963 7.13995 22.9463
11 1 8.27754 25.2286 4.21793
12 1 20.4584 25.9267 11.9488
13 1 22.8013 20.6323 0.545493
14 1 9.15124 15.0409 19.5647
15 1 0.446141 3.32671 26.8087
16 1 1.30323 2.41435 7.74454
17 1 14.0041 22.8422 18.2742
18 1 11.348 20.329 4.54597
19 1 12.9943 17.8855 9.24036
20 1 6.46229 6.2305 2.56821
21 1 24.3392 24.9983 0.269471
22 1 4.22821 18.2256 21.3586
23 1 15.8804 14.9441 20.3573
24 1 17.0344 10.8003 26.2408
25 1 0.0171059 6.00883 12.5525
26 1 12.6665 25.3323 27.0254
27 1 23.1359 16.4296 18.7212
28 1 2.1652 23.3279 1.00062
29 1 13.6607 14.1457 20.4217
30 1 20.5631 22.6923 14.7269
31 1 20.3111 7.62291 24.015
32 1 21.4749 9.01664 13.9957
33 1 5.47829 16.8531 10.9677
34 1 6.47002 21.0696 7.15472
35 1 23.6002 0.77968 17.1131
36 1 16.0306 8.33672 13.3225
37 1 0.937942 5.018 5.86172
38 1 8.98137 20.1648 16.8486
39 1 1.68735 15.4239 17.1447
40 1 3.19114 21.8497 17.5204
41 1 8.10306 12.7034 19.4877
42 1 0.841414 19.7463 2.6496
43 1 25.634 23.6224 15.2949
44 1 15.95 22.923 6.73914
45 1 24.2614 11.9998 22.8843
46 1 2.01379 25.2597 21.1735
47 1 9.3741 14.0889 13.1317
48 1 19.2657 16.8519 13.5858
49 1 8.17242 2.338 17.2803
50 1 11.7225 12.5863 5.70748
51 1 10.336 0.422523 12.8114
52 1 15.0259 7.44185 9.71286
53 1 21.434 10.454 17.3172
54 1 5.62265 0.795706 11.8288
55 1 3.81655 18.9567 16.7934
56 1 25.5004 3.46564 1.88874
57 1 22.5785 4.65581 21.5201
58 1 12.3472 20.4575 5.12882
59 1 3.09469 18.6218 0.188573
60 1 7.29349 21.1037 2.15313
61 1 12.2861 15.8928 10.3033
62 1 14.0381 10.5561 2.11807
63 1 17.2688 24.2486 17.7235
64 1 23.4469 2.10574 24.309
65 1 16.5508 17.9313 25.3491
66 1 16.1043 9.73567 23.2164
67 1 13.935 7.48257 13.8521
68 1 21.3152 15.8075 19.0596
69 1 3.65101 26.0496 11.6857
70 1 0.277781 18.5603 19.6129
71 1 0.626393 11.3993 3.61499
72 1 14.806 9.75889 17.363
73 1 19.7314 10.344 25.651
74 1 12.9409 2.86596 6.6329
75 1 2.2824 14.5503 22.0097
76 1 16.9187 25.5973 19.7161
77 1 6.57724 7.79823 25.4946
78 1 19.5738 26.046 9.45825
79 1 27.1391 3.44573 1.66211
80 1 19.7685 23.6379 17.9855
81 1 22.6608 2.19936 15.1542
82 1 25.2561 13.3553 1.09118
83 1 7.04347 9.06957 0.424871
84 1 10.6278 12.7649 15.7277
85 1 17.2712 16.2702 22.2867
86 1 18.7021 13.8373 18.7101
87 1 16.8871 15.2375 20.4642
88 1 6.23088 19.7253 24.5809
89 1 22.3862 10.2206 16.8669
90 1 18.1644 22.6848 7.2162
91 1 21.4557 16.8324 15.7236
92 1 6.07855 24.5209 6.32229
93 1 3.26312 11.6602 5.67267
94 1 14.1155 6.70085 14.4369
95 1 3.68119 22.0362 12.9161
96 1 22.775 12.099 18.1881
97 1 2.46351 22.0349 11.0277
98 1 19.4718 9.79311 24.8005
99 1 0.261667 4.71613 24.8395
100 1 0.369165 24.1279 11.4114
101 1 16.064 24.745 23.1903
102 1 6.74666 20.981 3.65789
103 1 13.4085 2.71066 2.99452
104 1 21.1118 5.96792 23.7472
105 1 12.5323 14.588 14.0004
106 1 15.4721 25.3163 0.82431
107 1 19.004 17.4988 18.2668
108 1 5.0373 26.8779 0.210755
109 1 21.9535 6.18803 5.56492
110 1 13.6221 17.6795 16.0247
111 1 23.1056 24.4681 0.731181
112 1 3.47475 18.5961 13.3217
113 1 25.9761 7.72415 6.03059
114 1 22.4053 20.9301 8.77747
115 1 2.77545 17.3987 14.6721
116 1 25.8795 17.4032 12.5257
117 1 20.6912 21.6444 17.2221
118 1 22.7691 14.1279 15.9335
119 1 19.6365 0.298074 7.42584
120 1 17.8593 11.1596 16.9301
121 1 5.03815 18.8027 26.1742
122 1 16.278 21.7495 11.1023
123 1 9.8576 3.68553 7.74871
124 1 8.90047 22.7402 21.4367
125 1 23.1438 11.2501 11.1563
126 1 11.9871 18.7845 8.40517
127 1 18.0973 9.33174 25.9197
128 1 7.01217 21.0019 26.3661
129 1 21.257 0.589638 1.97928
130 1 12.0213 19.8206 22.0656
131 1 3.41124 8.08713 8.21712
132 1 8.82326 18.6343 4.2427
133 1 19.2346 19.9784 7.80294
134 1 20.0805 22.6078 17.4614
135 1 4.58865 14.7909 2.60527
136 1 25.6 17.4206 5.92076
137 1 8.07879 8.98757 15.1984
138 1 2.57408 7.40931 10.8016
139 1 18.2559 4.71466 15.4115
140 1 0.722696 4.4254 19.7791
141 1 11.0952 26.6929 0.983447
142 1 21.3121 2.68538 21.1723
143 1 22.0189 6.09038 23.192
144 1 25.6637 8.23081 4.18448
145 1 26.7724 14.4522 21.8571
146 1 6.50572 0.074207 23.4651
147 1 13.7494 11.6062 13.6604
148 1 1.45074 9.29477 17.7197
149 1 20.6727 11.9395 15.7932
150 1 21.3191 17.2519 5.03771
151 1 18.5477 15.6883 25.6114
152 1 24.5356 9.17801 13.5763
153 1 10.073 0.969478 0.0937847
154 1 5.91935 22.7835 17.3638
155 1 20.6048 1.4446 25.343
156 1 12.6102 21.0413 7.10435
157 1 9.35417 25.9107 6.94566
158 1 11.2543 2.63659 18.82
159 1 11.3156 11.5579 22.7011
160 1 13.6086 24.9448 19.2921
161 1 12.7285 19.0107 1.56292
162 1 26.9406 14.4759 15.4288
163 1 2.27124 10.9992 7.38092
164 1 17.1773 17.2591 7.93152
165 1 10.8344 17.2096 19.6216
166 1 1.09087 12.7693 13.8606
167 1 21.3551 25.532 12.4114
168 1 16.3465 2.29415 25.6665
169 1 12.5443 21.4648 4.91015
170 1 15.5966 17.575 5.17306
171 1 20.1357 19.565 8.57571
172 1 21.6167 25.6736 5.44708
173 1 13.4033 24.1475 8.47853
174 1 2.03712 15.4879 3.7754
175 1 6.96503 15.0511 19.7517
176 1 2.54766 25.3453 3.35182
177 1 24.1499 26.2049 25.9209
178 1 7.16723 9.55602 5.00469
179 1 4.33166 7.75134 10.3613
180 1 21.3097 7.0623 24.3728
181 1 22.0091 15.7259 11.3874
182 1 2.10998 9.77404 2.98571
183 1 24.6949 16.3613 5.96473
184 1 23.8702 23.1488 3.75061
185 1 15.4071 25.7167 17.752
186 1 7.79076 25.2435 24.2404
187 1 13.7526 3.8465 1.18564
188 1 13.0802 8.44451 22.7415
189 1 15.7424 4.54846 3.76124
190 1 22.9104 21.1975 7.40745
191 1 17.324 19.1677 14.6472
192 1 22.1084 11.4739 17.6086
193 1 5.70338 5.33649 12.9438
194 1 22.1246 22.6854 6.50237
195 1 24.5753 15.999 6.9484
196 1 2.3439 16.5082 19.794
197 1 9.68778 18.3459 2.94091
198 1 12.3787 21.6124 10.1383
199 1 12.6267 15.0495 19.6284
200 1 8.78591 26.7335 14.4329
201 1 3.98967 21.7216 1.87319
202 1 15.8245 6.95043 10.7265
203 1 22.2102 8.58739 1.42733
204 1 16.7116 14.7402 13.5498
205 1 27.1394 19.018 8.76169
206 1 25.5246 1.58108 15.5598
207 1 10.5125 6.48094 2.6943
208 1 16.2519 4.85845 14.4726
209 1 6.43302 4.95154 1.07108
210 1 12.3658 10.7601 16.5779
211 1 2.64985 7.79288 9.04307
212 1 5.04835 17.5577 17.2629
213 1 17.9272 20.238 25.321
214 1 21.3976 14.3257 17.1167
215 1 8.28655 24.3233 16.2486
216 1 15.3849 18.1172 18.4872
217 1 0.370749 13.8081 23.6405
218 1 10.1147 9.95642 3.06145
219 1 16.3382 24.967 8.1302
220 1 2.04924 21.1779 4.28664
221 1 25.2743 5.05519 12.0143
222 1 7.77709 23.5831 23.734
223 1 10.1609 24.695 2.58129
224 1 0.816431 4.50194 26.4332
225 1 3.10773 24.8559 20.9502
226 1 23.8497 25.103 21.9729
227 1 23.2773 17.1238 1.96326
228 1 18.2732 2.60326 13.2693
229 1 25.8797 11.1364 10.6064
230 1 5.50742 21.2016 4.91874
231 1 14.2446 25.747 20.4097
232 1 4.30227 18.2153 24.0039
233 1 2.44213 14.6596 20.3696
234 1 26.6348 23.4373 7.2954
235 1 14.7964 19.6078 13.1623
236 1 17.5077 5.9554 3.31676
237 1 7.9196 25.0148 17.0537
238 1 4.06649 11.9714 5.01136
239 1 10.3637 16.7727 7.98147
240 1 8.79809 24.1491 9.82617
241 1 10.7783 25.3518 10.8797
242 1 9.63289 3.05223 11.9311
243 1 2.39857 2.99299 23.0083
244 1 9.35088 19.0425 0.386182
245 1 8.82998 24.7398 8.96042
246 1 20.8804 21.5115 18.6684
247 1 22.8166 9.98339 1.52145
248 1 21.8011 13.8271 24.3859
249 1 20.6855 17.8032 10.515
250 1 22.4341 12.5836 9.21566
251 1 1.88221 14.84 12.2777
252 1 10.5373 24.5829 11.6034
253 1 20.2809 17.4332 22.9792
254 1 4.89918 21.7406 21.5174
255 1 21.0113 3.8831 18.6661
256 1 0.571507 15.0711 17.885
257 1 21.745 7.78903 14.2732
258 1 4.81731 0.875071 7.99453
259 1 13.5923 15.0317 14.8096
260 1 0.874415 14.7029 26.3474
261 1 2.57853 3.0839 19.1642
262 1 12.0381 26.7803 4.27015
263 1 10.3814 1.96086 9.68454
264 1 17.2994 0.47297 0.587437
265 1 11.9836 6.74788 22.2372
266 1 21.2588 5.76905 20.707
267 1 0.262743 8.4763 12.5473
268 1 2.33442 7.79838 23.1083
269 1 19.084 11.244 0.0129164
270 1 23.5343 25.96 15.1424
271 1 17.9392 21.3383 22.0386
272 1 13.0937 5.31893 7.2646
273 1 15.7491 24.2097 20.7374
274 1 12.8119 13.5477 21.1567
275 1 4.21323 20.8222 3.52302
276 1 26.7005 12.0515 3.15729
277 1 18.5368 0.769695 21.6535
278 1 20.6862 24.1881 9.63013
279 1 6.32497 9.9086 17.6237
280 1 25.9021 26.1525 12.7918
281 1 22.6511 12.6978 12.5925
282 1 3.67078 26.7054 13.3008
283 1 25.8541 15.0175 23.6632
284 1 1.04034 5.89069 17.4998
285 1 10.8862 12.8769 23.1637
286 1 22.3877 2.77379 10.7637
287 1 26.0905 16.1238 7.37143
288 1 19.8904 14.673 1.00679
289 1 4.75144 4.22323 19.1718
290 1 25.29 17.678 9.24092
291 1 20.3639 0.504359 3.25868
292 1 2.07998 16.8555 18.6555
293 1 10.6595 11.4457 5.4011
294 1 19.7701 26.2926 10.6016
295 1 16.8219 7.94875 19.0635
296 1 10.5531 0.599815 9.57325
297 1 7.2694 8.80345 4.03059
298 1 11.0606 14.8683 24.4641
299 1 4.73971 13.1131 0.469849
300 1 27.1068 6.2506 0.164815
301 1 11.584 16.6889 13.3714
302 1 7.54 15.495 21.1758
303 1 4.16574 12.7175 9.30498
304 1 9.25249 26.0391 19.5351
305 1 5.24296 5.16258 1.3656
306 1 3.38595 14.0045 20.3733
307 1 4.76428 2.83857 3.34685
308 1 4.20387 18.5113 5.10584
309 1 8.99016 16.2692 14.1797
310 1 10.5531 11.6945 11.2262
311 1 4.77512 10.907 26.7713
312 1 1.24472 14.4563 24.926
313 1 14.4092 1.98394 18.0678
314 1 6.67762 16.8731 21.7594
315 1 7.34993 10.3028 11.061
316 1 22.2628 19.6649 11.2098
317 1 13.2857 26.1961 8.25399
318 1 15.7582 1.34061 23.9918
319 1 1.77496 7.57824 12.8446
320 1 1.6009 21.7726 9.82839
321 1 12.6643 5.04924 5.35133
322 1 21.489 6.89307 8.65423
323 1 21.4231 21.863 9.58947
324 1 6.83344 13.6475 9.89583
325 1 3.20604 18.8003 23.2213
326 1 26.317 15.316 26.765
327 1 7.6851 20.4883 0.0793957
328 1 15.8487 4.10755 15.5711
329 1 10.4083 12.4789 10.3224
330 1 21.9457 15.5195 10.2716
331 1 25.3256 18.8931 6.74499
332 1 25.7766 13.9901 17.2433
333 1 11.7812 23.6371 10.3245
334 1 22.4637 10.6454 21.989
335 1 25.426 25.8653 18.4764
336 1 24.3475 21.5438 18.0578
337 1 7.7286 8.79914 2.02242
338 1 12.0716 6.97245 18.717
339 1 18.2156 24.6664 14.7314
340 1 6.89414 26.7195 15.0655
341 1 19.0186 0.114376 14.3272
342 1 5.89914 7.84065 24.6963
343 1 23.4015 18.5908 14.1755
344 1 0.20562 9.25991 5.83902
345 1 12.0757 24.7957 14.2128
346 1 21.3909 19.2967 8.44308
347 1 8.82361 27.0548 24.166
348 1 8.29366 14.7532 23.5657
349 1 20.2416 25.2107 17.9916
350 1 6.35861 25.6441 3.74686
351 1 0.809605 20.2035 4.18415
352 1 20.1858 15.0422 2.43034
353 1 21.4428 16.4844 10.8053
354 1 1.4929 7.34254 3.55518
355 1 26.6261 5.49641 15.0774
356 1 27.0304 12.782 8.11623
357 1 5.01842 13.014 16.3834
358 1 24.5307 20.9394 21.4814
359 1 8.3965 12.4896 11.5467
360 1 3.44559 18.508 6.73259
361 1 17.2188 15.8555 18.8713
362 1 10.8365 1.83343 21.4304
363 1 19.3401 1.62308 15.5466
364 1 24.9431 18.202 7.46997
365 1 17.9652 24.7145 24.1744
366 1 0.0206063 12.8097 2.34835
367 1 27.0699 21.4385 5.59734
368 1 14.9409 23.2497 5.49871
369 1 16.0779 1.1789 25.3396
370 1 2.87658 16.5649 15.8102
371 1 24.1058 0.437271 8.73397
372 1 19.0544 23.652 0.931558
373 1 14.2225 0.43577 2.38819
374 1 2.34994 8.6627 0.821641
375 1 11.6142 20.4912 14.3606
376 1 3.86412 5.12409 24.2982
377 1 11.9687 18.0961 1.28657
378 1 10.0086 25.5369 4.67059
379 1 12.3185 10.3568 22.0898
380 1 5.98679 17.0518 10.0291
381 1 4.9209 1.36148 12.8065
382 1 10.3113 12.757 11.2317
383 1 7.25457 2.22885 18.1658
384 1 13.1184 12.1497 2.63507
385 1 13.7905 23.1922 21.69
386 1 2.59462 0.103242 2.9616
387 1 4.32433 25.3259 24.3938
388 1 20.0256 21.1821 8.79996
389 1 17.7942 24.6816 13.5539
390 1 6.30366 10.4374 22.3356
391 1 6.13537 5.88025 22.2244
392 1 18.2841 21.5407 5.04336
393 1 4.11625 12.2218 26.3674
394 1 26.7012 19.3921 19.9426
395 1 22.3709 14.1592 26.758
396 1 23.6018 15.9969 13.4716
397 1 6.67961 9.8963 16.2343
398 1 16.3934 24.6379 16.3909
399 1 23.6258 23.7145 6.37387
400 1 10.5281 10.6787 0.695769
401 1 20.1687 12.9426 25.4745
402 1 21.9022 10.5738 23.0683
403 1 25.2096 9.89961 14.4865
404 1 2.14481 26.066 19.3309
405 1 25.6546 25.0441 25.2962
406 1 6.36241 22.4583 21.757
407 1 17.2666 18.6231 13.7326
408 1 10.8979 25.7476 2.76916
409 1 1.02639 1.72252 25.0186
410 1 20.0361 11.4743 25.0971
411 1 7.68634 6.8131 2.54728
412 1 19.6697 7.21246 23.0354
413 1 2.22433 12.8028 4.71862
414 1 14.2722 26.6017 6.77558
415 1 4.05932 12.7329 3.31603
416 1 21.3498 22.5728 18.1436
417 1 14.0359 23.9429 16.1058
418 1 5.70939 23.9223 14.7187
419 1 26.3721 24.1839 21.3563
420 1 11.0126 5.48988 21.6954
421 1 8.56657 12.3351 22.0753
422 1 18.0195 9.38681 16.2174
423 1 20.2208 16.5072 12.5522
424 1 22.9758 18.7203 8.42622
425 1 8.25712 17.4955 6.0482
426 1 20.6895 12.8956 1.24554
427 1 18.1243 26.3551 4.11015
428 1 9.65835 22.1936 16.7704
429 1 20.3404 4.99429 8.44018
430 1 2.39869 26.0594 17.9739
431 1 12.8239 6.89026 15.0721
432 1 12.7782 22.0684 1.87865
433 1 11.1806 3.73024 5.56578
434 1 14.1805 10.9058 26.3255
435 1 14.6536 13.7148 18.3149
436 1 0.249718 14.6655 21.1143
437 1 0.208156 12.7962 26.687
438 1 4.50191 12.9551 1.66761
439 1 5.98574 24.5631 20.1721
440 1 11.2816 1.02552 1.24782
441 1 21.0958 8.47468 0.245209
442 1 19.3423 22.2799 5.34061
443 1 22.3396 18.1952 5.20288
444 1 7.94486 13.9516 26.5341
445 1 21.514 18.8229 0.251324
446 1 7.35053 22.8755 14.3415
447 1 23.9838 17.1307 24.1827
448 1 2.4236 7.97208 11.9128
449 1 2.64389 15.1584 11.1554
450 1 5.58756 16.847 20.201
451 1 17.3845 1.91552 26.0134
452 1 1.27562 7.67572 11.6464
453 1 15.7573 2.04253 0.117268
454 1 16.177 1.35128 16.7508
455 1 14.2445 24.7652 20.7302
456 1 2.57992 26.8333 7.77583
457 1 19.6182 19.5113 12.5977
458 1 26.7634 21.1189 12.6317
459 1 24.2551 17.8785 23.4299
460 1 3.66844 11.4141 17.9647
461 1 22.7624 25.2254 16.4053
462 1 7.93487 7.54936 14.5511
463 1 18.0681 10.0528 14.7366
464 1 22.5782 23.2119 7.18241
465 1 23.3826 14.3866 22.4187
466 1 6.6189 15.4951 16.8643
467 1 7.54029 14.8668 11.3148
468 1 16.7881 12.8771 0.940047
469 1 9.75386 24.5922 19.4611
470 1 1.05029 1.36068 23.6456
471 1 1.22235 9.96121 10.1675
472 1 2.38753 20.9964 21.5967
473 1 17.6567 16.5211 20.9146
474 1 8.12693 23.91 15.2701
475 1 21.9133 20.8723 11.7084
476 1 4.28748 9.50827 24.9103
477 1 22.3497 4.54751 23.0879
478 1 3.79851 0.46906 23.4998
479 1 3.71671 4.52139 23.3093
480 1 16.7426 13.7441 5.48095
481 1 17.8309 13.733 1.46001
482 1 13.7278 9.46482 4.65207
483 1 25.934 5.51964 5.30513
484 1 1.39149 0.217394 3.45066
485 1 0.128601 16.0406 10.233
486 1 1.10279 3.89438 11.3579
487 1 23.7063 11.5227 18.035
488 1 21.6844 11.7418 2.84652
489 1 10.5034 0.952371 1.94238
490 1 15.1336 22.7474 14.5248
491 1 26.8595 12.1196 19.9298
492 1 3.84855 20.2529 22.2311
493 1 19.799 8.60764 3.82611
494 1 27.0736 3.05315 15.6831
495 1 25.3754 24.1206 9.23697
496 1 12.7143 18.4567 11.013
497 1 24.2582 2.99622 2.8458
498 1 18.4901 1.41077 6.53259
499 1 10.8675 24.5646 18.1605
500 1 25.513 18.7331 21.8637
501 1 6.41926 17.5222 22.5391
502 1 12.8023 9.37845 12.3993
503 1 13.9423 11.1332 17.0751
504 1 3.54089 4.14147 6.68513
505 1 11.0264 0.187569 17.3116
506 1 3.21706 9.01021 24.9108
507 1 15.8465 19.936 8.3391
508 1 6.00134 8.83747 25.0815
509 1 24.4595 18.4917 9.26797
510 1 26.0547 11.2456 5.60098
511 1 6.92585 17.3429 9.99749
512 1 2.17004 4.89618 0.763023
513 1 12.7163 19.8182 4.37224
514 1 5.90165 8.93332 15.3336
515 1 5.8991 11.5937 17.622
516 1 12.1504 22.6826 4.27556
517 1 26.2553 15.2352 2.97469
518 1 25.2202 3.31665 0.0315889
519 1 1.42865 4.08591 13.9352
520 1 19.6932 17.0958 26.5225
521 1 17.1787 21.7732 2.42129
522 1 20.9289 18.2157 21.4865
523 1 11.8306 21.4768 15.2596
524 1 15.77 9.8144 7.13843
525 1 1.67527 6.95438 24.1361
526 1 12.7097 1.7789 9.44281
527 1 26.876 4.92603 18.7576
528 1 7.22197 17.2929 3.68871
529 1 24.4372 19.4368 22.9076
530 1 13.1218 26.9386 2.67467
531 1 2.06888 14.764 5.91572
532 1 22.1724 16.6333 14.7419
533 1 15.772 10.1191 12.8562
534 1 5.56914 3.77629 3.00227
535 1 5.85354 4.68817 14.5336
536 1 4.19224 0.539487 18.1416
537 1 8.63578 23.6503 21.5139
538 1 3.30671 26.2235 17.5197
539 1 24.9264 23.7294 2.74598
540 1 9.13446 19.5646 26.4131
541 1 17.9168 22.5413 3.04717
542 1 18.8613 14.6179 25.8778
543 1 8.9311 23.8664 0.947
544 1 1.04296 16.4402 18.2449
545 1 10.6925 12.2768 3.60546
546 1 2.37115 7.18376 15.9243
547 1 15.5977 25.1875 21.1177
548 1 24.9287 4.59811 2.2586
549 1 12.2389 5.44494 3.28626
550 1 10.7201 0.410304 25.1079
551 1 17.4511 6.32268 20.8449
552 1 21.566 20.9883 17.1371
553 1 13.3564 11.6376 15.3025
554 1 22.9421 18.0601 5.98026
555 1 16.6394 2.62952 6.11089
556 1 12.7835 22.8518 17.3019
557 1 26.1615 19.4251 16.8659
558 1 23.1979 6.64777 20.457
559 1 17.3978 22.7578 19.4671
560 1 18.0699 0.569007 14.0885
561 1 12.7388 18.1961 21.0975
562 1 7.89995 13.8522 9.92796
563 1 24.5868 9.94287 11.927
564 1 11.3239 15.1636 8.99928
565 1 15.366 6.48208 13.3629
566 1 9.47979 15.4463 16.3931
567 1 6.79948 23.796 17.8163
568 1 4.89752 21.645 7.23521
569 1 25.8773 18.0787 16.0667
570 1 1.19065 26.5394 16.1229
571 1 22.0177 2.86681 14.0038
572 1 16.6193 8.09573 24.568
573 1 24.1659 10.425 22.3334
574 1 0.652881 16.3157 19.1665
575 1 27.085 10.8528 6.28896
576 1 0.4829 7.90424 13.5953
577 1 8.85625 4.52874 19.787
578 1 0.454785 8.80036 1.0013
579 1 1.95211 15.5501 19.2529
580 1 19.5031 22.4548 23.263
581 1 13.9721 18.3486 9.00208
582 1 6.4796 7.12321 26.7758
583 1 10.6169 1.651 7.90951
584 1 2.41908 21.0297 25.6536
585 1 24.9211 9.86798 22.9681
586 1 0.0826919 13.1454 3.44893
587 1 9.87491 16.2304 1.37397
588 1 15.1242 17.9095 12.5023
589 1 21.4296 16.6289 6.75366
590 1 5.07342 17.4307 3.39219
591 1 24.0446 24.8115 5.62831
592 1 21.5338 9.61979 0.0500098
593 1 7.27105 17.2496 7.55056
594 1 4.23912 9.94549 7.50138
595 1 8.86287 25.6984 13.9732
596 1 1.76793 19.8647 4.04386
597 1 19.5935 15.7367 0.551706
598 1 0.841393 9.61996 18.5899
599 1 13.13 24.3944 16.9433
600 1 0.0825114 8.51295 19.0555
601 1 19.5719 8.39659 4.87585
602 1 14.5402 24.8684 17.1418
603 1 16.7829 25.3482 13.4865
604 1 4.59633 15.9956 2.5392
605 1 8.83576 23.1261 2.65004
606 1 12.881 3.49225 26.2875
607 1 25.4717 19.0259 12.8263
608 1 12.5329 4.17456 11.6607
609 1 9.51886 26.821 3.30105
610 1 14.867 7.08761 5.27497
611 1 16.0961 15.0723 15.0321
612 1 17.9649 11.2737 26.5629
613 1 24.9864 14.1776 23.2077
614 1 1.47002 6.29883 25.087
615 1 19.1041 24.8881 13.3607
616 1 7.43287 10.441 20.3933
617 1 5.7615 1.58514 10.8419
618 1 5.81113 4.50586 12.1987
619 1 6.87713 4.05434 0.104458
620 1 23.3802 1.28605 14.3253
621 1 21.6999 15.4193 25.4386
622 1 18.5794 3.30628 4.93494
623 1 24.4107 10.8564 0.570793
624 1 1.16994 3.23775 10.3174
625 1 12.3142 16.3164 18.6039
626 1 17.4131 11.3074 12.2522
627 1 24.3573 11.384 24.108
628 1 17.4692 7.05209 3.20075
629 1 15.1534 12.3713 21.3452
630 1 11.9815 13.1545 22.613
631 1 8.04163 9.99506 1.46714
632 1 26.3101 12.2668 14.2964
633 1 9.2117 1.89266 6.64314
634 1 23.0246 8.3184 2.64195
635 1 17.0067 9.52463 14.9429
636 1 1.05849 17.9564 24.659
637 1 23.1739 25.4538 9.06643
638 1 22.8374 20.8286 17.6104
639 1 25.404 3.59572 26.0748
640 1 13.2561 24.7849 10.5984
641 1 17.7609 7.97781 21.729
642 1 8.90592 16.4466 2.35306
643 1 12.5134 17.6817 11.8793
644 1 5.45477 6.46863 21.5027
645 1 12.3417 10.0336 25.029
646 1 3.28344 8.06594 1.65384
647 1 23.1855 16.1617 22.3456
648 1 13.6402 23.6494 11.3935
649 1 20.8881 11.5297 2.08747
650 1 5.02804 4.33995 13.0693
651 1 11.7429 4.13631 14.8712
652 1 23.435 25.7368 0.987399
653 1 6.81246 17.0185 17.6188
654 1 9.93061 18.5462 14.9085
655 1 13.5403 16.5923 8.12381
656 1 18.741 16.1242 24.6336
657 1 20.8074 10.0815 12.5684
658 1 26.0853 26.5524 26.4365
659 1 25.2208 5.34819 16.4891
660 1 20.7128 18.4618 9.7061
661 1 19.661 26.6366 13.0065
662 1 22.9078 15.7026 15.5665
663 1 1.32642 5.66857 26.9477
664 1 12.7925 14.2612 12.672
665 1 16.1764 5.78095 8.15977
666 1 15.0963 19.526 22.4566
667 1 5.17395 20.8013 4.03163
668 1 17.2728 14.1468 19.214
669 1 22.3221 18.1858 26.095
670 1 24.5811 23.2764 6.0088
671 1 22.5808 10.4651 20.6975
672 1 16.0888 12.2265 14.4233
673 1 5.75344 15.8588 7.92773
674 1 17.7325 7.47338 9.85311
675 1 9.80433 1.32577 8.51429
676 1 23.4945 18.0469 4.10947
677 1 7.21426 10.9639 26.3477
678 1 12.2997 24.4083 12.7434
679 1 15.0395 16.2418 6.15526
680 1 7.90538 26.7697 1.23433
681 1 13.8853 25.1028 16.257
682 1 7.99042 15.4718 24.7874
683 1 16.1462 24.8234 22.1153
684 1 26.5469 8.06585 9.77294
685 1 19.2946 6.49424 8.29392
686 1 19.5186 19.7137 26.1887
687 1 19.5619 19.2757 4.94101
688 1 24.6314 13.6715 21.1768
689 1 2.05641 23.4366 18.2828
690 1 8.37885 21.5012 1.47352
691 1 13.2819 7.52214 16.3574
692 1 14.1574 19.1669 22.8228
693 1 9.04204 22.0433 13.2776
694 1 22.2748 7.41983 23.8399
695 1 11.2535 1.73197 15.4813
696 1 25.7092 2.7407 24.7087
697 1 4.88958 21.297 16.8876
698 1 17.7633 12.0269 8.10878
699 1 6.40636 2.13374 13.2736
700 1 1.25042 7.73693 16.0324
701 1 1.15619 16.3978 17.1562
702 1 0.680355 5.73976 7.00403
703 1 13.5455 11.4605 25.6123
704 1 20.4803 3.07867 2.36439
705 1 3.61582 6.63809 18.1094
706 1 12.5692 22.6715 23.1644
707 1 22.6043 3.62461 14.5653
708 1 2.59534 15.7287 14.992
709 1 5.47529 13.3206 26.1656
710 1 15.2548 9.77091 4.94311
711 1 16.5297 18.3126 14.8398
712 1 25.7751 24.3784 2.65407
713 1 17.0644 11.8943 20.7012
714 1 6.21165 23.4483 13.0829
715 1 10.8592 9.38275 7.48008
716 1 1.02976 12.5139 11.8139
717 1 9.6474 7.30427 7.12141
718 1 19.3137 16.5607 11.1106
719 1 14.8427 5.96221 2.163
720 1 25.2872 14.4877 21.4288
721 1 17.3587 1.27148 21.0771
722 1 12.1289 21.8151 20.4957
723 1 16.5499 14.8881 0.219566
724 1 24.6773 25.8758 12.375
725 1 3.66367 5.2055 11.7537
726 1 24.1279 5.5477 23.3298
727 1 0.0770326 16.9317 17.463
728 1 10.8795 22.0429 21.6066
729 1 14.832 20.2866 15.5316
730 1 6.95138 24.0365 19.4582
731 1 11.2113 25.7958 3.79239
732 1 2.16227 11.0362 21.1685
733 1 15.6836 6.99737 7.82733
734 1 1.87063 6.76086 27.09
735 1 16.2917 19.9708 6.08592
736 1 19.7608 2.95819 9.86955
737 1 17.6176 19.0541 23.4034
738 1 11.2947 15.8377 23.8559
739 1 23.9893 5.21624 6.03462
740 1 4.49004 21.7321 5.06108
741 1 2.3708 3.78384 17.4451
742 1 7.24324 22.0159 6.5729
743 1 3.54408 14.2912 12.1961
744 1 2.93537 3.96702 2.81722
745 1 18.052 9.92182 1.39008
746 1 14.7269 2.13931 4.81921
747 1 1.75473 26.064 1.19664
748 1 23.9204 17.7792 14.7224
749 1 10.6744 15.5801 1.97761
750 1 27.1409 21.6305 10.9552
751 1 9.48934 14.2477 15.0178
752 1 1.62047 15.5806 22.5396
753 1 10.4389 18.984 24.209
754 1 8.07381 19.5907 18.8195
755 1 3.21614 12.1266 9.15241
756 1 18.5902 15.2736 22.0094
757 1 23.7138 15.6077 7.51527
758 1 11.1128 21.4469 20.6495
759 1 1.01063 21.1737 11.5005
760 1 16.9428 3.71142 9.03036
761 1 14.3657 6.56485 26.4105
762 1 10.2239 19.8047 0.820168
763 1 0.111555 6.5074 19.2461
764 1 26.9716 25.2096 24.3898
765 1 6.70268 9.70836 20.5306
766 1 1.54502 25.4497 18.3405
767 1 26.6949 18.6021 7.68708
768 1 11.7562 15.0519 1.34629
769 1 4.96701 5.82709 23.1222
770 1 20.7752 24.0737 17.9272
771 1 25.7594 15.1686 16.6128
772 1 13.3977 9.65114 18.9193
773 1 15.7229 17.1167 26.6557
774 1 0.82529 9.93459 24.1403
775 1 23.9054 3.12648 25.1213
776 1 21.1613 14.2812 2.55327
777 1 15.3828 21.3579 13.503
778 1 1.93716 24.2939 17.7355
779 1 19.4341 15.881 13.8518
780 1 13.1131 19.5165 21.798
781 1 13.5846 19.1603 8.36618
782 1 25.6166 7.59239 2.84613
783 1 1.54143 20.6092 3.32953
784 1 12.0849 19.2646 20.6325
785 1 8.32566 0.326154 12.301
786 1 6.66869 10.5477 1.24388
787 1 26.3396 26.6582 0.936502
788 1 8.62257 23.0646 16.6335
789 1 17.5219 19.1863 5.30491
790 1 7.73041 3.7588 10.5001
791 1 0.370485 24.8895 5.32421
792 1 15.5105 8.03378 24.4442
793 1 27.0258 13.014 19.4044
794 1 4.16388 16.7408 3.27644
795 1 11.8259 11.6891 14.2446
796 1 3.00496 22.8446 21.8708
797 1 4.48232 9.67044 3.36723
798 1 10.0801 17.4862 11.7843
799 1 14.7606 16.3471 11.5121
800 1 0.719427 20.6205 1.681
801 1 3.81667 5.51867 18.5833
802 1 4.20815 5.55587 3.68023
803 1 4.86791 24.274 25.7047
804 1 25.1713 10.9729 1.90201
805 1 12.098 3.75474 18.4354
806 1 22.932 2.35802 21.9574
807 1 25.8412 3.56764 17.1313
808 1 12.0064 10.5296 3.36644
809 1 10.2612 8.99382 2.33193
810 1 0.94936 23.6277 17.8615
811 1 9.05268 15.6389 25.1574
812 1 14.1902 17.7855 23.0285
813 1 8.72632 16.4566 16.8565
814 1 20.6364 22.522 20.3663
815 1 9.06796 6.98011 2.28647
816 1 11.0936 18.5082 0.934618
817 1 12.4002 7.77648 20.1504
818 1 5.6349 6.20936 1.56584
819 1 15.1632 23.868 15.9239
820 1 14.9614 14.118 9.8596
821 1 23.2004 5.32887 2.80074
822 1 20.7452 24.6542 18.8676
823 1 24.1516 24.5984 12.8095
824 1 2.72205 4.55449 25.7863
825 1 1.17008 22.1716 1.68738
826 1 13.617 20.4246 4.34779
827 1 25.5414 13.7442 19.307
828 1 23.571 26.3765 11.3053
829 1 24.5308 23.4866 1.03365
830 1 27.0622 22.8226 18.0892
831 1 18.0664 17.0823 23.0353
832 1 15.9967 15.9674 6.63576
833 1 21.0239 7.56888 12.5623
834 1 10.1463 23.0615 0.757742
835 1 16.5739 1.35622 23.2697
836 1 26.6158 21.8703 4.0834
837 1 17.2972 22.7564 24.3904
838 1 23.972 10.8251 6.36219
839 1 17.602 11.0179 4.19297
840 1 23.6864 8.15916 6.96748
841 1 11.7256 1.63795 4.33807
842 1 1.93306 18.8582 19.9284
843 1 17.2015 6.0767 4.48094
844 1 24.5156 13.5658 0.196139
845 1 9.69294 15.9187 11.0014
846 1 11.41 18.4865 2.34403
847 1 10.3332 11.0592 21.4452
848 1 13.7379 19.1588 14.5782
849 1 11.1932 25.8137 5.99301
850 1 21.1941 25.4503 11.0464
851 1 22.2379 19.215 16.1397
852 1 2.2776 25.9731 16.7428
853 1 2.75951 25.0432 21.9353
854 1 11.1875 5.47761 17.9543
855 1 22.4426 17.3902 2.86319
856 1 3.61645 10.8394 10.1171
857 1 16.2302 15.8157 19.7319
858 1 11.1914 26.8281 12.7682
859 1 9.3839 3.6478 19.3537
860 1 0.239603 17.0952 21.298
861 1 5.21926 20.7303 9.44608
862 1 0.736775 23.8866 18.9432
863 1 26.3137 2.85818 26.16
864 1 10.7731 23.0501 20.8342
865 1 1.54351 12.0451 3.33549
866 1 16.2042 0.305321 19.0475
867 1 11.1875 16.5814 25.9987
868 1 11.46 23.7595 18.0829
869 1 25.6002 13.0472 18.1754
870 1 13.008 3.15036 18.0822
871 1 3.67787 18.0199 10.9009
872 1 13.1864 15.696 9.06728
873 1 11.6326 0.409752 3.7877
874 1 18.0007 6.05079 16.2328
875 1 15.0107 8.52512 20.0221
876 1 13.808 3.9339 23.9376
877 1 21.6357 24.5588 19.6722
878 1 0.861374 25.7173 9.76975
879 1 27.0914 22.5313 13.408
880 1 15.7762 2.47866 15.0422
881 1 6.71227 1.56857 9.47665
882 1 13.9669 9.00051 3.54009
883 1 9.03162 21.1271 10.0711
884 1 1.95335 13.9454 10.0466
885 1 17.362 15.5848 6.44908
886 1 10.8948 1.56641 10.767
887 1 0.832439 18.5261 2.79568
888 1 7.4337 5.20728 1.99898
889 1 16.4733 15.9758 3.69566
890 1 5.48647 13.6521 19.1099
891 1 12.8935 1.98524 12.9935
892 1 12.409 3.23969 8.78704
893 1 17.4619 26.6986 26.9121
894 1 20.3939 20.6413 18.0806
895 1 26.4379 22.978 12.6048
896 1 15.9174 25.7962 19.3129
897 1 7.80169 8.11774 5.34267
898 1 26.9309 8.53402 16.8424
899 1 14.5544 5.07932 11.3443
900 1 4.22935 12.9776 24.7317
901 1 1.18591 2.49746 22.9887
902 1 1.23487 21.8422 13.0301
903 1 2.20201 6.42128 11.3717
904 1 0.738177 17.6675 25.7345
905 1 16.2644 9.06119 7.67335
906 1 22.2768 24.7434 5.99186
907 1 11.1818 11.1393 15.8977
908 1 7.72607 22.0595 9.82848
909 1 7.98015 7.04359 10.0804
910 1 3.07753 2.17548 25.9544
911 1 0.953722 1.17513 3.49607
912 1 11.193 17.817 12.9324
913 1 19.4523 13.3899 20.3365
914 1 2.9045 2.28379 20.7305
915 1 8.65758 5.12315 15.5009
916 1 3.80179 14.7004 22.8089
917 1 13.937 12.2356 10.8093
918 1 12.7879 14.3387 15.36
919 1 23.3645 12.433 1.1085
920 1 7.97424 10.1719 25.0494
921 1 8.4716 17.6624 4.78561
922 1 13.9708 5.27349 2.5686
923 1 3.69878 22.1032 3.30922
924 1 15.4546 17.5462 6.81011
925 1 0.424379 9.31583 26.6432
926 1 1.52793 6.65159 12.1717
927 1 20.6606 18.9233 16.6352
928 1 7.79861 12.5588 10.6018
929 1 12.4991 16.5687 26.5868
930 1 10.1404 0.493548 20.9177
931 1 6.89899 22.7011 24.0974
932 1 22.3371 15.8684 22.8093
933 1 0.828908 3.97238 18.859
934 1 22.5892 5.7244 24.7558
935 1 2.14981 7.05809 17.9933
936 1 22.9221 3.71101 9.8905
937 1 4.87476 2.00364 11.8727
938 1 21.7007 10.8378 15.7883
939 1 3.04439 12.6461 25.1066
940 1 16.6443 0.827931 24.1637
941 1 22.6698 24.9933 7.39249
942 1 10.0087 4.92789 17.8816
943 1 16.0977 24.514 5.67313
944 1 0.308452 15.0617 23.2603
945 1 3.13906 0.570441 11.6595
946 1 6.98322 26.0205 16.6285
947 1 1.26645 14.9319 2.64469
948 1 11.2088 12.3428 13.292
949 1 14.2109 4.5439 8.50464
950 1 3.00262 25.0346 17.7544
951 1 6.05634 3.32545 24.5134
952 1 20.6095 9.47689 26.3937
953 1 14.0287 27.1033 15.9539
954 1 2.32329 26.9706 24.6819
955 1 20.8882 19.0359 4.03715
956 1 8.6149 8.29401 6.60312
957 1 22.827 4.10077 12.8118
958 1 16.7912 21.1321 3.17499
959 1 14.4784 18.3353 0.359662
960 1 13.5537 1.17693 9.78096
961 1 17.5901 1.28808 5.87399
962 1 8.26021 7.63954 9.01433
963 1 10.819 16.5276 24.8557
964 1 9.40534 23.4567 19.958
965 1 16.2784 14.6652 8.68832
966 1 12.9998 17.3813 1.53563
967 1 17.9517 13.2256 25.2904
968 1 26.97 11.2319 12.7316
969 1 18.8035 12.4326 19.3234
970 1 18.7557 26.7301 21.2393
971 1 2.89554 1.63578 11.645
972 1 15.4517 20.9753 21.9515
973 1 18.8038 1.38961 17.348
974 1 25.4298 3.28494 23.6544
975 1 22.8787 25.6678 5.57833
976 1 9.7454 2.61778 9.07736
977 1 2.50385 6.71263 13.4365
978 1 25.0083 23.9784 20.6796
979 1 0.35706 25.5851 18.6248
980 1 20.4232 2.28381 4.37962
981 1 25.2953 9.26684 7.60268
982 1 21.9377 3.23549 22.517
983 1 8.28898 21.0734 22.5332
984 1 4.11848 8.41471 24.2198
985 1 7.34306 11.6951 20.6398
986 1 11.4581 25.1301 18.9967
987 1 17.1188 8.10562 27.0983
988 1 21.1744 8.54244 3.72722
989 1 1.71932 12.9857 22.8546
990 1 7.08238 21.7732 0.503419
991 1 16.8489 26.8137 1.86251
992 1 13.5878 0.00903998 8.11594
993 1 15.4842 14.0498 14.8962
994 1 9.27545 16.6285 20.0824
995 1 11.6209 23.5367 11.5024
996 1 8.12882 2.24618 15.8777
997 1 26.3194 13.7663 26.8929
998 1 3.50983 23.7595 1.2808
999 1 7.16668 16.2976 13.8933
1000 1 18.3292 5.37239 3.55886
ITEM: TIMESTEP
110000
ITEM: NUMBER OF ATOMS
1000