ITEM: TIMESTEP
100000
ITEM: NUMBER OF ATOMS
1000
ITEM: BOX BOUNDS pp pp pp
0.0000000000000000e+00 1.4938015821857213e+01
0.0000000000000000e+00 1.4938015821857213e+01
0.0000000000000000e+00 1.4938015821857213e+01
ITEM: ATOMS id type x y z
1 1 12.4874 9.6022 9.98567
2 1 5.96899 12.0873 0.696865
3 1 1.6226 1.78813 2.97735
4 1 14.7987 8.98995 0.328949
5 1 9.1086 2.49324 3.10361
6 1 4.04036 10.2201 1.17734
7 1 4.50493 14.3182 7.93655
8 1 7.53735 12.0218 3.14418
9 1 0.628108 0.236257 12.627
10 1 8.91274 9.40721 10.9568
11 1 14.2875 14.6458 8.59919
12 1 12.8322 13.1478 8.724
13 1 7.78269 9.309 9.51139
14 1 7.31723 5.57005 1.00612
15 1 8.85782 5.21837 13.0905
16 1 11.083 0.2888 1.72232
17 1 12.7151 1.17996 4.07228
18 1 14.8923 12.0709 8.89396
19 1 8.61525 4.56852 7.30979
20 1 14.382 10.5483 7.55857
21 1 4.61814 1.11542 9.86559
22 1 5.52659 3.33487 4.73495
23 1 7.81252 11.9857 14.2401
24 1 10.4641 5.07971 12.1632
25 1 3.77461 11.5684 4.33352
26 1 1.74904 12.2561 0.959063
27 1 10.0795 10.8733 4.35086
28 1 12.9825 5.28871 5.01819
29 1 13.4322 2.82711 8.61902
30 1 6.72816 12.0907 7.09324
31 1 13.3351 8.70937 6.88326
32 1 3.54119 2.50667 6.1123
33 1 8.55058 6.72186 12.969
34 1 8.73836 7.51699 14.207
35 1 3.43998 8.93709 14.7596
36 1 0.134202 9.48977 7.62976
37 1 12.146 12.4629 5.71774
38 1 7.37589 3.02948 13.858
39 1 7.72245 5.97826 11.1214
40 1 0.965232 7.84593 1.30288
41 1 14.1131 8.49934 4.21108
42 1 5.89089 12.452 8.66506
43 1 0.399897 6.42947 12.7091
44 1 2.0147 12.3266 11.4222
45 1 6.2558 14.8215 7.58281
46 1 10.0611 8.09755 13.6373
47 1 6.66061 2.6271 4.58418
48 1 10.7963 6.4199 12.7333
49 1 11.4901 14.8952 3.14315
50 1 6.37307 1.28726 7.86398
51 1 2.38212 8.43023 2.98291
52 1 12.0672 14.4725 3.97275
53 1 0.908324 5.81621 12.1274
54 1 8.43775 14.0879 5.94011
55 1 11.1407 10.0539 12.6041
56 1 6.56293 13.5671 12.9152
57 1 1.69602 2.70571 5.96626
58 1 13.4796 3.97899 7.15283
59 1 7.5835 5.62471 2.25558
60 1 13.4005 7.34521 0.767775
61 1 3.15834 6.07519 2.99975
62 1 8.73351 5.8753 7.58895
63 1 12.4435 0.404214 0.0744305
64 1 2.46284 10.485 5.69913
65 1 2.00279 4.39869 7.66535
66 1 7.32327 12.9453 8.92713
67 1 6.4043 3.40322 9.78022
68 1 12.6732 11.5502 10.6398
69 1 6.05696 6.85013 8.77894
70 1 8.77621 1.03464 6.85027
71 1 10.106 1.59513 14.3445
72 1 10.1285 12.5028 14.3087
73 1 10.7443 3.37768 11.1278
74 1 10.9593 5.21907 13.3589
75 1 0.858505 13.3764 0.245682
76 1 8.40389 7.49624 3.01331
77 1 13.4547 0.786655 8.98312
78 1 4.0196 9.1422 10.3515
79 1 10.3727 8.80967 5.33002
80 1 3.18894 7.51409 7.09352
81 1 12.045 8.97089 2.28202
82 1 11.4219 9.6295 14.0877
83 1 1.66224 13.8361 14.7427
84 1 7.2792 10.003 1.4307
85 1 14.8855 2.47285 1.65267
86 1 7.32897 7.39232 6.30841
87 1 4.3487 8.29345 9.73901
88 1 10.5748 13.645 4.47613
89 1 6.70874 11.8514 5.27904
90 1 2.39914 13.54 13.6107
91 1 8.8259 9.81702 9.85475
92 1 4.94303 11.8881 12.7853
93 1 1.39791 11.0347 9.96904
94 1 1.75628 5.85739 0.251096
95 1 10.6451 4.623 4.882
96 1 1.0767 11.6067 3.11447
97 1 12.7961 12.6924 1.75603
98 1 12.9514 14.3818 1.6558
99 1 14.6362 13.5633 11.3374
100 1 8.07034 0.787952 5.91852
101 1 11.8016 10.4274 2.03031
102 1 10.0974 5.82348 0.112562
103 1 7.19215 6.30957 9.96853
104 1 1.12818 10.6169 3.74222
105 1 3.85649 8.3091 7.5206
106 1 13.2143 14.8295 5.52104
107 1 11.5763 10.4149 3.54397
108 1 6.92991 11.7801 11.5382
109 1 2.87309 8.3743 10.6586
110 1 12.164 11.6097 13.8072
111 1 14.8315 6.98901 2.69472
112 1 7.43615 8.09939 7.48724
113 1 13.5958 8.44376 0.244713
114 1 0.440812 6.5044 3.59722
115 1 10.8898 11.351 14.2075
116 1 9.24262 2.54349 1.55091
117 1 3.76787 8.6401 8.68352
118 1 0.355559 1.53305 9.93632
119 1 4.99097 6.65155 0.12877
120 1 1.53721 10.4063 6.14796
121 1 5.25282 9.94317 2.90874
122 1 0.662588 3.74218 1.97445
123 1 2.99258 1.48091 4.69214
124 1 2.14559 10.0694 0.169595
125 1 1.52093 14.5113 11.7689
126 1 1.16849 13.6899 12.4474
127 1 5.98201 12.7243 9.96823
128 1 8.3614 8.66867 8.18948
129 1 10.129 4.17309 11.7817
130 1 0.7124 4.15053 8.94735
131 1 4.28673 3.31522 6.23828
132 1 11.8932 10.932 0.543377
133 1 2.64825 3.94175 10.5858
134 1 1.23122 5.63624 3.21523
135 1 12.0902 13.3445 3.78623
136 1 8.11842 7.01383 6.89182
137 1 7.72356 4.18513 7.86346
138 1 9.34415 5.86053 8.57317
139 1 6.06064 0.0480737 5.82233
140 1 10.1955 13.446 8.21917
141 1 8.58776 14.615 13.0694
142 1 3.47159 13.6145 10.1432
143 1 12.185 14.6662 0.716494
144 1 7.4144 5.97082 0.0359506
145 1 5.87812 2.22117 9.09989
146 1 9.19289 7.12459 9.62218
147 1 8.62365 2.82341 4.90253
148 1 13.945 3.59795 11.3143
149 1 14.0521 9.38553 11.4026
150 1 8.81197 14.5494 2.06672
151 1 6.05878 12.305 2.04592
152 1 7.13189 5.4368 3.24703
153 1 9.87397 11.1531 5.73215
154 1 11.2288 7.61238 5.44782
155 1 9.19108 1.70185 2.39744
156 1 14.4815 0.380096 1.68656
157 1 4.56273 10.8772 2.78571
158 1 5.00455 12.9243 11.5135
159 1 5.17736 1.47873 4.05203
160 1 9.1176 13.3373 7.69341
161 1 12.8795 8.05452 11.5171
162 1 10.5909 8.13101 8.10997
163 1 8.60733 5.55014 2.42321
164 1 9.6198 5.18282 3.12203
165 1 3.6351 4.97201 1.03828
166 1 12.8161 8.20705 7.98306
167 1 7.58209 4.30002 0.300102
168 1 12.2205 14.6602 12.9876
169 1 4.20188 1.00127 2.61565
170 1 10.1304 8.38708 9.5776
171 1 6.89814 2.8943 8.8404
172 1 3.6304 4.14254 9.95966
173 1 13.7278 9.87784 12.5269
174 1 9.92222 1.19104 10.3838
175 1 1.25513 13.7651 7.98202
176 1 0.113827 7.65397 0.726583
177 1 2.48253 9.19135 1.14882
178 1 9.77863 12.43 7.57803
179 1 10.6369 6.256 10.4946
180 1 14.7828 12.9475 5.02204
181 1 10.7335 7.4932 12.6722
182 1 6.21146 3.44906 13.8479
183 1 11.6442 9.37722 5.00627
184 1 8.39492 14.7825 8.60247
185 1 0.722867 10.2764 5.18337
186 1 7.51124 14.5512 7.97014
187 1 8.21446 4.42574 5.75705
188 1 0.556088 8.2383 9.66244
189 1 11.7401 6.53165 12.2542
190 1 3.42507 0.908774 10.1372
191 1 3.00897 8.90934 13.2208
192 1 4.40996 0.826494 3.63306
193 1 3.9438 0.344581 1.90325
194 1 7.89946 4.42417 10.5007
195 1 12.4821 9.98048 8.35809
196 1 10.2853 12.5706 2.37208
197 1 11.0399 12.8638 5.5253
198 1 10.6581 9.45966 7.62931
199 1 0.230166 10.557 14.4774
200 1 14.3389 1.93937 4.28519
201 1 5.1879 0.795919 5.9063
202 1 3.24031 14.7341 13.4947
203 1 9.36003 11.5513 8.704
204 1 1.14571 3.89201 4.51142
205 1 14.506 10.4438 0.406416
206 1 13.0045 4.78106 2.18715
207 1 2.54165 14.7984 12.2683
208 1 12.9462 10.2354 1.36209
209 1 10.463 6.07765 8.0635
210 1 0.719471 2.28489 3.56962
211 1 10.8527 4.15407 10.0007
212 1 9.13373 1.93388 7.38839
213 1 2.88188 2.51799 12.7302
214 1 13.4611 12.6494 11.2371
215 1 5.1423 0.498767 8.85174
216 1 1.45365 6.49483 7.24921
217 1 8.74099 3.3971 9.19732
218 1 8.83792 5.87331 14.2349
219 1 8.16246 8.06535 0.183373
220 1 0.788698 9.04135 13.1349
221 1 1.31462 10.8422 8.48383
222 1 9.08224 9.28818 4.43967
223 1 12.5862 7.83332 13.9806
224 1 8.61338 7.77647 8.94945
225 1 2.57207 11.0668 3.91069
226 1 7.79496 13.505 0.953378
227 1 11.6236 10.9469 13.1073
228 1 3.46985 9.96333 13.095
229 1 12.2793 10.3157 14.7266
230 1 14.4213 8.9209 14.2805
231 1 8.46107 6.08052 1.34237
232 1 12.467 0.229014 7.48225
233 1 3.82348 0.224043 6.65398
234 1 9.02574 5.16776 5.38897
235 1 0.428846 14.1111 13.1363
236 1 10.8844 11.0025 1.13735
237 1 6.04117 12.717 4.77544
238 1 2.18576 7.97841 6.19882
239 1 14.0648 1.26925 13.6108
240 1 7.88215 2.64588 4.05549
241 1 12.3461 12.4882 11.1986
242 1 1.90446 4.63588 3.60375
243 1 6.99918 14.2657 14.7494
244 1 11.0941 14.1616 0.467678
245 1 11.2383 4.37038 11.9594
246 1 13.9164 13.4468 1.44434
247 1 1.17156 1.45331 6.51693
248 1 10.3861 12.0261 13.1206
249 1 9.17739 3.82816 3.20971
250 1 9.1649 0.441118 10.2513
251 1 3.97691 0.0540539 4.9011
252 1 0.877287 2.6455 4.78254
253 1 9.36038 3.79386 7.08094
254 1 12.6356 2.18862 10.2679
255 1 2.97839 12.7882 10.7248
256 1 4.59668 1.29785 8.61565
257 1 8.33297 9.70998 5.37059
258 1 4.17858 1.20128 1.14038
259 1 14.826 6.10648 10.9798
260 1 8.06296 5.22818 8.23127
261 1 4.01139 3.96735 7.57233
262 1 7.92483 6.58422 2.13217
263 1 10.73 10.9291 3.24154
264 1 12.0434 7.73531 12.2352
265 1 12.3441 10.7995 12.1498
266 1 2.77726 2.4961 4.4832
267 1 0.41623 7.55093 6.96499
268 1 3.91331 11.7904 11.4665
269 1 11.4498 3.05505 6.28433
270 1 8.26425 14.7214 3.00479
271 1 9.92629 6.08267 6.4973
272 1 13.5701 10.9118 8.10637
273 1 0.851627 5.41301 13.2036
274 1 1.62022 1.95644 5.17374
275 1 13.2225 12.3276 5.04862
276 1 10.0448 4.32252 1.70153
277 1 6.37863 4.57655 11.0574
278 1 8.29858 8.52927 7.02212
279 1 10.8933 13.9757 3.41413
280 1 14.3508 7.42816 10.0826
281 1 10.1051 12.7561 6.17292
282 1 1.20132 2.80535 7.12172
283 1 4.11067 1.11725 4.59893
284 1 12.8843 14.5526 14.1064
285 1 7.48975 5.93245 9.06063
286 1 0.337406 4.21593 3.41713
287 1 10.6633 12.3061 4.57027
288 1 8.57607 9.0448 3.23435
289 1 6.36653 11.5358 14.8496
290 1 13.3622 12.8524 9.75948
291 1 11.4244 12.4689 13.4439
292 1 5.50581 5.03694 10.0165
293 1 3.44485 5.2461 12.5613
294 1 1.31376 12.6202 7.65567
295 1 6.93931 2.68265 5.81455
296 1 7.00757 8.84417 10.9382
297 1 2.22593 14.3591 5.57924
298 1 2.50083 12.167 4.12262
299 1 8.57517 4.77914 4.55137
300 1 14.4645 9.52982 1.82692
301 1 9.70023 9.36739 10.0132
302 1 6.59559 4.97711 0.61063
303 1 9.91532 7.02982 10.5552
304 1 9.32832 14.5286 14.8822
305 1 7.52059 1.46837 6.55554
306 1 1.5554 7.23406 0.264465
307 1 6.37758 0.671331 3.99256
308 1 7.77563 3.15612 5.96771
309 1 6.241 10.4854 1.61048
310 1 6.57877 8.64774 1.08215
311 1 6.80028 10.4416 6.42571
312 1 5.26091 9.9832 1.56848
313 1 6.50086 4.74839 6.32836
314 1 4.08805 4.18309 2.42131
315 1 6.58123 10.4465 3.10763
316 1 10.5017 10.8724 9.00469
317 1 6.09064 13.8763 4.30725
318 1 4.31728 2.04901 7.6777
319 1 14.2153 12.4386 5.93633
320 1 5.49688 6.85848 2.11409
321 1 1.53711 9.15968 0.632103
322 1 8.46683 7.0007 5.51201
323 1 5.47911 10.2642 4.98283
324 1 2.5181 9.88362 13.8117
325 1 7.18041 8.10405 8.48898
326 1 3.39125 9.329 4.16941
327 1 2.71321 13.1148 9.65858
328 1 13.9789 8.98044 7.99798
329 1 9.23928 0.519523 8.4683
330 1 5.41227 3.0159 10.7797
331 1 0.712402 9.08145 14.6623
332 1 3.57378 6.86087 11.6402
333 1 4.90403 14.8583 6.68471
334 1 12.9523 4.01793 12.1633
335 1 13.6675 3.04921 12.6207
336 1 7.18 6.40718 4.57011
337 1 9.66269 9.34678 1.45234
338 1 7.65459 14.4568 9.39662
339 1 12.9252 11.3212 14.894
340 1 7.82566 2.02459 5.65931
341 1 11.7384 3.58894 10.4947
342 1 9.06737 14.1106 11.7122
343 1 11.7743 13.3163 4.72893
344 1 12.5137 4.69311 8.75176
345 1 9.76229 1.14209 1.48233
346 1 13.0187 11.511 1.19766
347 1 14.7018 12.5535 9.93192
348 1 10.9231 8.01079 4.55861
349 1 2.69789 0.0608389 4.85591
350 1 11.4953 6.60337 5.94487
351 1 11.9237 4.92776 10.0989
352 1 7.73744 12.0068 5.09906
353 1 13.7026 11.3838 14.1423
354 1 6.89054 6.86609 10.7704
355 1 2.59667 1.39735 12.6893
356 1 13.4578 9.89554 6.31692
357 1 6.73506 4.31803 2.75384
358 1 0.829576 9.99666 13.7752
359 1 3.7948 13.9165 12.6504
360 1 1.59963 10.6077 13.8479
361 1 6.24346 0.244638 14.7118
362 1 1.94929 3.57969 2.10425
363 1 10.1764 10.2485 9.66243
364 1 11.9579 9.57599 12.205
365 1 13.4925 2.55198 5.72614
366 1 8.01203 12.8427 2.29497
367 1 3.11123 0.753067 11.4266
368 1 12.5563 6.85692 13.0122
369 1 11.3951 12.2341 0.440822
370 1 12.2265 6.06079 11.4031
371 1 14.0059 7.01998 6.94273
372 1 5.21941 12.3898 14.2847
373 1 6.72445 12.1849 3.96899
374 1 7.3724 5.25588 5.9432
375 1 1.73574 8.67247 13.4963
376 1 9.20467 5.33309 1.17105
377 1 11.6072 11.8979 10.3826
378 1 1.76753 0.888389 3.7204
379 1 8.15311 7.05668 3.98642
380 1 0.235335 8.65849 1.91599
381 1 2.66222 3.03271 3.51763
382 1 0.382421 13.055 8.26112
383 1 10.4288 12.6788 0.605835
384 1 6.06758 14.0263 2.2146
385 1 0.601325 4.43831 6.98435
386 1 12.3646 4.89173 11.4934
387 1 7.95768 0.00505718 14.8907
388 1 8.02221 3.79928 1.40235
389 1 9.57625 5.95156 2.33716
390 1 12.9019 13.7542 12.9218
391 1 12.9015 1.93546 8.39949
392 1 12.2671 2.66295 6.98023
393 1 14.4127 4.79331 9.16082
394 1 5.78979 14.0422 6.91482
395 1 8.63091 12.3382 3.13715
396 1 7.17658 3.50565 4.6627
397 1 9.18805 0.440356 3.17654
398 1 0.355829 3.53604 12.5471
399 1 4.55747 13.1008 12.521
400 1 13.8907 12.3133 12.2943
401 1 10.8462 0.439798 10.2057
402 1 10.2549 14.2173 6.95366
403 1 4.08978 0.602053 8.07662
404 1 14.543 9.89065 8.61531
405 1 9.8965 2.51862 9.02007
406 1 4.03705 12.2753 10.2747
407 1 8.53294 13.2659 11.2177
408 1 12.0703 4.80138 2.79713
409 1 11.3912 13.072 1.23237
410 1 11.4402 13.2831 11.1894
411 1 12.4024 10.5693 10.1881
412 1 1.02773 8.91875 10.5918
413 1 8.82961 6.35731 10.9118
414 1 3.86145 11.4295 1.69755
415 1 8.8192 9.55213 7.63088
416 1 1.0381 10.2933 0.8563
417 1 0.246063 11.1039 4.2183
418 1 11.5379 0.940224 9.43021
419 1 2.08301 2.40231 13.6421
420 1 5.50249 3.75682 13.1486
421 1 10.7009 4.6525 6.44999
422 1 11.1359 8.93929 12.4525
423 1 7.47078 12.1505 0.409435
424 1 2.58522 5.9241 13.913
425 1 2.40364 3.13658 6.43845
426 1 7.63567 9.31495 7.66689
427 1 8.48931 8.26558 6.03133
428 1 2.12537 6.66941 1.67384
429 1 5.03525 12.0696 1.51378
430 1 7.4136 8.60832 5.88203
431 1 9.23294 8.52419 10.4167
432 1 2.19749 0.387312 0.277657
433 1 2.31963 6.61788 9.22334
434 1 8.98991 2.29812 9.92966
435 1 3.19979 10.0492 0.57998
436 1 3.37325 13.4744 4.26129
437 1 6.75387 4.67674 8.38276
438 1 13.2743 10.2571 14.3214
439 1 14.7498 11.0609 1.34688
440 1 8.28923 0.0716349 4.08796
441 1 11.8048 5.15469 1.50077
442 1 13.1627 6.55991 3.32235
443 1 1.42771 0.952928 9.23968
444 1 6.03839 9.05371 2.83459
445 1 12.6578 0.670624 5.09361
446 1 6.18834 14.4179 13.8222
447 1 1.31489 9.89365 12.8901
448 1 6.80451 1.74818 9.29534
449 1 8.45287 12.9452 4.06896
450 1 8.38561 6.15919 9.85562
451 1 12.2032 1.62498 11.1049
452 1 12.9455 14.8139 11.0058
453 1 5.38796 0.445302 3.29302
454 1 9.67338 14.0225 2.34092
455 1 12.9095 8.97256 12.421
456 1 8.79679 13.4158 0.33729
457 1 8.96665 3.40686 10.2208
458 1 9.47508 12.638 4.57809
459 1 2.75117 14.6201 14.5284
460 1 13.6325 12.0894 7.1703
461 1 4.71631 11.0379 1.78831
462 1 10.0126 5.03253 11.0043
463 1 4.57328 6.60401 13.6557
464 1 7.72559 10.9984 6.95482
465 1 9.18417 10.497 5.94208
466 1 13.4965 14.8911 12.7563
467 1 1.3531 2.69482 14.8625
468 1 9.17361 10.4119 4.70558
469 1 1.31714 0.91766 11.1276
470 1 1.09416 4.94266 0.818076
471 1 14.4788 0.310015 3.33496
472 1 11.0916 4.31291 8.55222
473 1 8.70821 4.73327 3.61813
474 1 2.96555 11.6189 11.5287
475 1 11.2921 8.67654 5.82411
476 1 12.2051 8.40447 1.09302
477 1 12.066 4.84314 12.9879
478 1 14.0132 12.4618 8.38693
479 1 14.3388 2.75668 9.09749
480 1 3.99814 1.62234 11.4854
481 1 4.10313 3.21105 3.23218
482 1 10.5853 4.31525 7.4521
483 1 12.6246 5.98487 6.14999
484 1 4.42844 10.665 13.3098
485 1 5.84979 7.78357 0.234429
486 1 11.7453 13.1929 9.98128
487 1 2.4162 4.76416 1.15193
488 1 4.76195 0.413856 10.6018
489 1 6.65695 7.77468 2.46572
490 1 6.82629 6.09313 14.1008
491 1 10.334 0.826395 12.0981
492 1 14.508 12.0533 4.02008
493 1 4.14224 12.442 4.7241
494 1 10.3572 9.83744 14.7469
495 1 9.67156 14.5767 13.7636
496 1 9.4404 10.7781 7.92728
497 1 6.38425 4.21406 4.45437
498 1 8.16576 4.83537 1.08019
499 1 8.46404 3.38841 11.422
500 1 6.76487 1.20441 12.9391
501 1 14.0023 12.3804 1.51321
502 1 6.50958 2.29295 10.0686
503 1 1.86108 0.558573 6.8964
504 1 13.224 5.36246 7.40911
505 1 4.12248 10.795 14.8135
506 1 10.9572 2.54283 3.46586
507 1 4.40901 10.0946 3.63706
508 1 4.5836 4.42537 8.47247
509 1 4.79051 11.1687 4.23482
510 1 7.16853 14.0882 3.73309
511 1 6.52201 1.15353 1.72453
512 1 9.87149 2.31157 0.826503
513 1 12.7459 1.86126 6.6173
514 1 3.87167 6.87551 1.8376
515 1 9.76102 8.70151 3.34781
516 1 3.49302 1.6104 9.17876
517 1 10.6466 0.519543 4.29521
518 1 4.18581 10.1536 10.1101
519 1 5.96858 5.46547 6.9671
520 1 5.01235 2.32049 12.8475
521 1 14.5795 9.4577 13.3516
522 1 3.20337 10.2868 4.62375
523 1 11.6537 5.41331 12.1841
524 1 3.19903 5.2177 0.136828
525 1 8.09734 0.549287 13.4801
526 1 13.1261 10.9302 12.9265
527 1 4.38312 4.98407 9.52903
528 1 1.52591 6.18812 11.2011
529 1 10.884 2.00166 9.98727
530 1 9.81343 6.63899 13.0345
531 1 7.95863 2.43498 6.77215
532 1 3.99342 0.298901 9.07227
533 1 13.8293 4.8825 11.2725
534 1 5.91873 10.9555 3.96646
535 1 12.4891 6.72884 6.94869
536 1 1.90673 0.890054 13.509
537 1 3.88128 13.7278 5.3686
538 1 12.5384 0.570637 11.8216
539 1 8.12737 0.755574 10.4742
540 1 3.5351 9.50475 12.0029
541 1 11.2749 5.45037 4.24558
542 1 7.81228 4.15105 2.97998
543 1 14.6794 9.07717 9.86423
544 1 14.0869 7.4334 8.11197
545 1 12.3418 11.7499 12.5469
546 1 7.12257 0.914269 2.58839
547 1 8.38764 1.04297 14.6837
548 1 10.5214 14.8835 0.935175
549 1 0.198384 2.44636 6.14774
550 1 14.3699 3.07203 7.68644
551 1 13.1771 7.91971 1.67092
552 1 11.6458 3.45775 0.537726
553 1 11.3007 10.9064 9.84255
554 1 13.6997 1.83858 9.37885
555 1 13.5445 14.7091 2.56612
556 1 10.865 5.64217 6.9436
557 1 14.8617 3.06547 4.10264
558 1 14.0335 12.6008 2.5992
559 1 1.428 5.79443 1.46495
560 1 6.84634 12.8313 5.51979
561 1 2.39701 6.07792 12.7456
562 1 1.86675 10.6579 4.70397
563 1 1.07539 1.84386 14.1721
564 1 9.00356 6.64237 3.3898
565 1 2.61744 11.8628 9.66424
566 1 14.4749 13.3517 13.4401
567 1 4.79667 10.0382 0.455386
568 1 2.83833 0.0254563 7.50081
569 1 1.78991 11.3303 1.78205
570 1 12.4224 1.71179 9.35958
571 1 9.89873 13.2998 1.50734
572 1 9.09345 11.5053 4.33961
573 1 1.49923 3.44936 3.30094
574 1 7.97878 2.54402 13.0652
575 1 1.9701 8.83807 9.69946
576 1 3.54859 9.11939 0.901104
577 1 7.89607 3.76785 12.8065
578 1 13.0553 6.58121 10.9347
579 1 14.8907 12.787 14.5046
580 1 2.0653 2.29455 10.5511
581 1 2.42053 9.78043 12.5187
582 1 9.06385 8.12111 7.75975
583 1 3.23841 10.328 3.31274
584 1 13.6775 2.48743 3.72638
585 1 13.5012 0.842303 3.49066
586 1 4.15042 6.97506 4.24713
587 1 2.96708 4.08756 12.4186
588 1 6.62641 12.7746 2.93349
589 1 6.23237 6.68561 3.93518
590 1 7.73111 14.056 4.76919
591 1 12.3532 12.389 9.54991
592 1 11.0164 11.7928 9.14523
593 1 11.6556 14.5212 14.4874
594 1 9.48643 12.5748 12.4935
595 1 2.9874 11.2579 14.2075
596 1 5.6046 3.19602 0.776349
597 1 3.97929 6.44512 14.7307
598 1 4.65381 2.33109 9.16083
599 1 5.72419 12.1564 3.85616
600 1 13.4043 4.18979 4.44321
601 1 3.1147 0.826509 8.4361
602 1 5.4668 5.49533 2.51626
603 1 8.58203 5.9574 5.83908
604 1 8.13283 9.80066 6.79121
605 1 12.0526 5.54067 6.86457
606 1 6.19399 11.0646 11.2719
607 1 7.04722 0.11903 6.38379
608 1 14.8009 8.72076 10.9297
609 1 3.5351 0.759793 5.66267
610 1 7.59004 13.9524 2.13607
611 1 5.30356 10.9851 14.8722
612 1 9.55587 4.25999 10.3999
613 1 10.0447 6.06917 9.57973
614 1 3.61614 8.45277 12.2543
615 1 14.3429 11.801 0.151344
616 1 10.4497 9.04272 13.3317
617 1 3.43493 11.0681 0.814378
618 1 8.07253 13.6185 3.43632
619 1 8.68622 12.6547 13.8161
620 1 2.90004 2.12084 7.95019
621 1 8.29537 10.5 9.16731
622 1 9.83189 7.36782 7.39837
623 1 12.2543 0.704082 8.64991
624 1 13.0079 11.1073 5.61176
625 1 11.6021 1.03235 2.90255
626 1 14.4213 6.05392 7.3031
627 1 9.34179 9.62061 8.71098
628 1 9.40249 13.8204 6.30633
629 1 4.03795 5.75317 2.0673
630 1 12.3997 0.576275 1.63204
631 1 3.54539 14.3106 1.41548
632 1 5.74704 1.67819 10.2373
633 1 5.71028 7.28224 13.7814
634 1 3.13274 8.14771 0.52357
635 1 12.2695 2.22792 1.57081
636 1 2.88449 10.1148 1.75916
637 1 1.70337 2.54323 3.92406
638 1 7.53235 13.6815 11.2316
639 1 7.76876 1.07629 7.6298
640 1 7.75776 8.33752 14.2181
641 1 9.13738 4.24944 13.7916
642 1 6.41381 14.5357 11.5216
643 1 3.46042 12.952 13.6463
644 1 9.65944 2.95761 7.90944
645 1 5.89364 3.44061 2.01283
646 1 14.0861 13.3339 9.11044
647 1 12.9771 13.2928 5.93986
648 1 4.96173 6.07275 1.3891
649 1 9.6975 4.79226 6.71723
650 1 8.7953 3.23978 2.19737
651 1 10.9255 1.46698 13.5964
652 1 11.9321 11.3036 11.426
653 1 1.49683 8.13234 2.5375
654 1 1.86093 4.92743 10.9322
655 1 5.1808 13.7498 9.77462
656 1 2.1932 0.203217 11.2602
657 1 1.61267 7.76258 10.1551
658 1 12.3825 8.94384 7.04024
659 1 0.804248 5.25305 2.0364
660 1 4.46693 9.0128 14.8648
661 1 12.0187 12.2413 4.64136
662 1 13.1384 12.2918 6.27378
663 1 6.37936 0.497412 8.86973
664 1 7.71289 4.03272 6.69307
665 1 5.60723 2.18599 7.58124
666 1 9.2567 5.1962 9.8433
667 1 11.4133 0.949488 11.1829
668 1 13.7821 13.3314 4.06393
669 1 3.82498 11.7195 13.7051
670 1 11.4643 2.01056 6.8864
671 1 8.85426 1.98695 14.7723
672 1 8.35365 8.31515 4.04438
673 1 0.0842671 8.13132 2.87297
674 1 13.246 14.297 0.288344
675 1 14.1846 11.1706 6.19698
676 1 2.37395 12.3435 13.6544
677 1 4.76117 8.41894 12.8877
678 1 7.58959 12.7747 12.7788
679 1 2.05182 3.19786 4.71724
680 1 3.63876 11.398 3.38037
681 1 2.1396 3.48224 13.1953
682 1 5.12629 2.09367 5.41927
683 1 4.2006 1.60394 5.74168
684 1 7.48763 9.48397 0.430615
685 1 11.4178 8.93855 7.92072
686 1 9.67227 7.68802 8.58606
687 1 0.111527 9.85266 10.4197
688 1 6.8907 14.2248 10.456
689 1 9.19525 8.21082 5.13287
690 1 14.4887 5.52023 3.55772
691 1 5.02237 9.37324 12.2564
692 1 11.3226 6.69488 4.82235
693 1 14.7838 14.1813 3.47064
694 1 4.32314 9.43877 9.27839
695 1 7.54735 10.9196 5.87321
696 1 13.4075 7.39015 12.245
697 1 3.2167 8.31562 1.50266
698 1 3.70922 2.96228 7.36532
699 1 6.32708 7.71959 4.59628
700 1 2.60752 2.1437 9.3782
701 1 10.0976 7.14532 4.74951
702 1 7.80218 4.37834 9.20221
703 1 14.3318 10.4901 3.23756
704 1 8.19604 7.51735 1.56226
705 1 13.788 13.5246 14.2664
706 1 0.435324 3.48241 7.59792
707 1 13.5073 6.79223 2.06617
708 1 4.64636 3.24006 1.20209
709 1 2.77766 1.90112 11.0936
710 1 11.9192 8.88556 11.5776
711 1 11.2852 9.77438 6.29358
712 1 1.79035 6.94014 11.9143
713 1 12.7377 2.19725 3.31762
714 1 6.50787 3.99987 0.0373202
715 1 13.6163 5.72357 6.55385
716 1 13.0381 9.88722 11.7859
717 1 8.15074 7.01029 0.597636
718 1 14.2025 8.11956 6.96581
719 1 10.2409 11.6636 0.293562
720 1 13.8662 1.3516 6.87493
721 1 14.8427 2.47433 5.03434
722 1 6.78149 5.20648 4.27451
723 1 7.69512 8.55561 1.19074
724 1 1.68351 3.54246 1.02868
725 1 14.2423 7.88471 1.99127
726 1 9.97562 12.5738 8.78862
727 1 2.19681 2.37961 2.46902
728 1 3.97624 11.2137 12.3291
729 1 10.2746 12.7743 3.70174
730 1 11.1675 0.92307 14.5198
731 1 4.6717 6.15155 11.0025
732 1 12.3957 9.90166 13.5127
733 1 4.50838 13.3183 10.5858
734 1 6.27909 2.48417 1.23031
735 1 7.30836 14.8401 2.16804
736 1 7.22978 0.153972 14.1694
737 1 13.4726 10.6568 9.92535
738 1 14.588 4.55592 2.07967
739 1 10.1537 0.426579 14.1484
740 1 11.642 9.33799 0.213821
741 1 5.97679 5.78973 0.205262
742 1 0.0908162 2.07824 8.93348
743 1 0.48074 3.6511 11.2549
744 1 3.4572 12.1751 14.7844
745 1 6.79234 3.01814 7.28355
746 1 0.789553 2.77779 12.0256
747 1 12.5158 13.4747 1.11427
748 1 13.1535 1.92149 0.557305
749 1 6.92264 3.21351 10.7201
750 1 13.2729 0.441006 0.782344
751 1 2.53147 2.57169 5.52719
752 1 14.1649 8.6894 1.17984
753 1 1.34438 6.58234 13.8989
754 1 2.36992 1.812 3.75301
755 1 8.68288 13.432 12.6776
756 1 9.75744 9.71231 7.03795
757 1 11.1888 12.0893 11.6984
758 1 3.77415 7.55522 8.9875
759 1 5.86453 14.3049 0.0636725
760 1 11.7713 7.2741 13.4972
761 1 3.9333 7.19347 0.627966
762 1 3.82137 1.78402 10.44
763 1 12.5235 14.1109 4.81149
764 1 6.78988 3.511 0.952307
765 1 7.679 6.13856 7.91982
766 1 7.99958 5.37949 5.12326
767 1 8.97367 5.98749 4.65271
768 1 13.9773 11.3894 4.83386
769 1 11.1972 5.39247 10.9118
770 1 7.5781 4.63676 2.02783
771 1 7.46723 1.63617 10.5323
772 1 13.6859 3.39748 5.00882
773 1 3.07616 10.3666 11.5556
774 1 4.60882 4.96367 2.95209
775 1 13.5669 1.1986 5.45389
776 1 6.19766 14.5473 9.59777
777 1 8.97895 6.85765 2.08203
778 1 0.252941 12.2434 6.98428
779 1 1.39519 9.21648 3.84446
780 1 7.69069 8.09716 2.62977
781 1 13.2111 14.0604 8.84981
782 1 3.94804 5.33449 7.47985
783 1 10.3455 14.7542 14.8646
784 1 12.5969 12.3025 0.490965
785 1 8.99336 13.7581 13.6421
786 1 8.28861 7.92166 9.96242
787 1 12.461 7.98471 9.39002
788 1 13.2353 1.15896 9.96009
789 1 13.3026 9.08497 1.64902
790 1 5.90473 12.7504 12.3912
791 1 10.9212 13.7 9.35929
792 1 12.2877 1.97533 14.3369
793 1 2.85112 8.30831 9.05509
794 1 14.1238 6.20053 8.64018
795 1 11.9753 2.80519 11.1071
796 1 7.35269 11.94 6.22515
797 1 11.3131 8.51214 6.98508
798 1 2.45501 9.85708 10.3499
799 1 7.91672 5.20735 9.78532
800 1 7.59385 7.12264 9.15789
801 1 7.18651 9.05749 2.8963
802 1 9.19816 13.557 8.71091
803 1 0.768462 5.09469 8.80086
804 1 0.884334 10.236 7.45177
805 1 3.03691 11.9922 12.7339
806 1 3.36074 13.1953 2.78458
807 1 10.8917 5.67974 5.76651
808 1 2.19437 10.5289 9.2367
809 1 3.83365 9.87011 13.9483
810 1 14.9096 4.09751 10.3226
811 1 8.76441 13.8661 4.77822
812 1 14.662 2.77486 11.3142
813 1 13.969 5.28224 4.42775
814 1 5.74218 11.8083 11.9316
815 1 5.05583 5.84108 3.76914
816 1 3.00088 11.5567 6.49661
817 1 12.0276 1.28241 0.547702
818 1 8.20085 6.10363 3.23675
819 1 6.60992 10.7986 5.35644
820 1 13.684 6.04458 12.1907
821 1 12.9648 9.18039 11.1775
822 1 14.3259 2.013 2.90033
823 1 11.0893 8.06052 10.4134
824 1 11.2981 1.42256 12.3354
825 1 6.24548 13.4932 8.84785
826 1 7.07829 0.539361 10.4743
827 1 6.17909 6.29896 1.68013
828 1 6.57637 6.40164 7.97744
829 1 7.28141 6.88506 3.40525
830 1 14.7155 1.39207 1.22694
831 1 1.72307 11.2535 11.173
832 1 7.31482 9.7826 5.36861
833 1 5.88807 12.038 5.90438
834 1 12.5287 2.75291 13.6181
835 1 2.01903 2.77806 11.7196
836 1 5.60166 13.7844 11.6522
837 1 12.9448 5.51837 13.9544
838 1 9.21504 6.38081 0.557455
839 1 7.26364 11.0302 0.602458
840 1 12.7969 4.96381 1.15
841 1 9.92965 11.4414 2.62559
842 1 11.824 6.16619 13.2131
843 1 11.9349 3.72262 2.49488
844 1 4.40453 9.26811 13.4214
845 1 2.07049 10.7137 3.09337
846 1 0.837235 10.6361 2.05127
847 1 9.54743 4.50574 12.6233
848 1 5.72538 5.51749 8.86095
849 1 14.3014 9.85518 14.411
850 1 0.455452 11.8042 14.4366
851 1 11.4621 1.15591 5.23185
852 1 6.57747 13.6826 1.19898
853 1 7.90251 12.9417 5.80437
854 1 11.3292 0.337797 0.501259
855 1 11.7711 6.5244 7.70529
856 1 7.92569 7.12849 10.9234
857 1 12.0495 13.8429 9.02034
858 1 14.5709 7.47192 13.0662
859 1 2.88642 14.018 8.62351
860 1 3.54721 12.46 3.72105
861 1 4.5427 11.8339 0.549772
862 1 14.0505 2.3569 6.75857
863 1 3.76217 8.26212 2.57737
864 1 10.7515 5.16191 1.86307
865 1 2.86024 4.87849 11.6064
866 1 12.1408 11.6706 3.05879
867 1 1.53937 3.77093 11.1152
868 1 0.308863 10.5587 8.24012
869 1 5.35912 4.40987 3.57555
870 1 13.9955 13.6545 12.2441
871 1 5.86946 3.40294 7.81475
872 1 10.3287 5.06434 10.0239
873 1 14.5002 14.6182 13.4512
874 1 12.8408 13.2867 14.8652
875 1 2.84869 9.09156 2.21666
876 1 7.04799 10.3414 4.37096
877 1 11.9848 3.14946 9.47734
878 1 8.02581 2.33041 2.20831
879 1 14.8363 11.5206 7.88708
880 1 2.4184 12.76 1.88844
881 1 2.62754 13.4705 5.23934
882 1 10.5936 0.459986 9.15282
883 1 11.499 13.6737 12.5268
884 1 13.22 12.8041 13.8793
885 1 1.48287 1.31272 12.4294
886 1 5.78072 11.5185 4.79315
887 1 6.23867 10.0474 0.483313
888 1 10.1932 10.4323 13.8529
889 1 6.67325 5.22398 9.64956
890 1 11.5183 10.3113 11.1054
891 1 6.04793 0.630984 6.72335
892 1 4.51487 3.72443 5.26809
893 1 3.52371 7.63809 10.334
894 1 12.0859 2.7245 12.6358
895 1 11.0767 11.8225 2.86013
896 1 0.533708 6.68414 0.800695
897 1 7.29934 7.54863 5.19744
898 1 8.35349 3.20061 7.2793
899 1 5.85372 10.9868 0.852471
900 1 0.526004 5.84249 7.17174
901 1 10.8158 13.8989 5.98046
902 1 2.9144 12.6166 7.23371
903 1 6.87446 3.92764 5.81008
904 1 8.64494 4.59452 2.15272
905 1 2.39424 5.20799 8.67969
906 1 7.80781 14.2745 13.8709
907 1 9.60084 5.97541 11.7103
908 1 9.67722 10.9991 6.78006
909 1 1.22212 12.5317 6.48193
910 1 4.30386 7.32866 14.3212
911 1 11.8678 0.0319425 5.23517
912 1 5.69177 1.69533 6.47009
913 1 13.6565 9.8694 7.2805
914 1 1.83954 8.778 1.8231
915 1 9.39626 14.2776 1.21007
916 1 13.8612 4.11186 12.9803
917 1 9.64703 5.14222 4.38285
918 1 14.1415 10.9906 12.4041
919 1 0.348185 5.30992 4.63648
920 1 7.77877 2.60237 9.44704
921 1 7.32845 3.09792 2.65574
922 1 1.46169 1.99375 8.76091
923 1 9.26191 1.98478 5.97761
924 1 5.48426 13.0888 6.83733
925 1 4.87582 8.21195 8.06605
926 1 1.29676 5.26294 7.57214
927 1 7.07984 10.4355 11.6813
928 1 6.10489 7.53978 7.83393
929 1 10.979 7.42502 7.24379
930 1 4.86349 7.57794 3.65024
931 1 4.50931 8.99798 2.99747
932 1 3.73197 5.67852 3.99579
933 1 1.73619 5.6241 9.66792
934 1 6.96219 3.65485 3.55095
935 1 1.04794 11.6129 7.68337
936 1 8.29597 5.58675 0.328567
937 1 13.4507 0.398547 14.7204
938 1 1.41322 12.2375 4.8036
939 1 4.12534 10.5817 11.3073
940 1 6.0173 4.13315 1.25742
941 1 2.75457 13.9672 11.6239
942 1 8.39855 12.0584 5.81053
943 1 11.8362 12.9703 14.5206
944 1 13.9214 14.7413 7.59109
945 1 8.83915 13.299 2.78821
946 1 10.0174 8.1247 10.9529
947 1 6.86642 11.5323 7.9682
948 1 13.1013 11.6787 4.32416
949 1 4.56689 2.50981 10.9004
950 1 6.12205 13.199 0.157297
951 1 2.2191 11.7466 0.066115
952 1 7.02204 6.8608 1.67405
953 1 9.22202 14.6226 7.6151
954 1 5.4002 3.36912 6.12962
955 1 11.2589 12.0459 6.10347
956 1 3.94327 13.5749 11.4798
957 1 8.58373 7.58981 4.65141
958 1 11.8119 7.86322 2.02863
959 1 1.51998 4.46829 1.72586
960 1 0.817023 2.30045 2.48204
961 1 10.9427 9.56054 10.6868
962 1 5.28498 13.1621 3.8816
963 1 8.07205 1.54763 2.85251
964 1 9.13783 14.0754 3.48734
965 1 9.14337 0.687988 13.7332
966 1 13.2525 14.897 4.49351
967 1 11.819 11.2494 5.63349
968 1 10.4027 8.36879 6.31633
969 1 8.15113 9.99777 11.9004
970 1 2.60185 3.49565 14.6487
971 1 11.2559 10.4135 14.7053
972 1 3.80203 12.2841 6.6201
973 1 4.53165 12.1601 3.10077
974 1 2.64363 10.9909 10.4624
975 1 13.3778 1.74762 10.8921
976 1 6.8117 4.40162 12.7254
977 1 12.6293 1.48049 13.3143
978 1 2.95617 5.10041 4.82654
979 1 11.4481 11.8907 1.56144
980 1 13.5987 11.1136 1.98481
981 1 0.242105 9.51492 11.5209
982 1 3.38173 1.60677 1.805
983 1 6.7456 12.8876 8.10929
984 1 5.57543 2.35061 11.6549
985 1 6.53376 13.1809 6.79001
986 1 4.51792 4.51614 0.600624
987 1 8.24783 1.12778 9.24009
988 1 3.22713 8.30081 5.82486
989 1 10.818 0.710444 7.98627
990 1 8.22114 13.9597 7.12424
991 1 1.25656 11.8698 9.15368
992 1 13.6102 13.852 4.98513
993 1 6.32992 6.28422 2.81938
994 1 4.67851 2.61366 4.6853
995 1 9.62197 5.327 7.67672
996 1 7.31135 7.16366 13.6499
997 1 10.7878 2.82963 1.27791
998 1 12.9605 13.1278 4.47048
999 1 0.759237 12.0415 10.1295