ITEM: TIMESTEP
100000
ITEM: NUMBER OF ATOMS
1000
ITEM: BOX BOUNDS pp pp pp
0.0000000000000000e+00 2.7144176165949062e+01
0.0000000000000000e+00 2.7144176165949062e+01
0.0000000000000000e+00 2.7144176165949062e+01
ITEM: ATOMS id type x y z
1 1 5.78126 24.1405 25.4659
2 1 3.38736 26.5851 10.4052
3 1 0.532227 26.1891 13.4205
4 1 4.89079 11.3374 12.1878
5 1 15.8466 5.21085 18.1104
6 1 7.77781 4.23154 4.47689
7 1 8.12035 11.9602 12.5818
8 1 12.4365 18.6556 19.3457
9 1 2.3834 7.93031 17.9777
10 1 10.7856 16.4361 14.0666
11 1 14.7512 15.683 11.674
12 1 23.7181 15.6391 25.1327
13 1 16.5484 16.0569 4.51577
14 1 25.1136 4.39303 18.7401
15 1 2.72443 17.9675 19.2555
16 1 14.7136 26.3239 18.1202
17 1 11.6233 9.84162 17.1212
18 1 23.4323 14.1848 8.02014
19 1 12.8058 22.0301 6.12829
20 1 17.8323 10.3077 10.3789
21 1 23.9809 16.6892 18.1867
22 1 1.12824 7.16554 4.37335
23 1 4.91633 17.6377 19.6523
24 1 19.0085 10.596 10.658
25 1 17.6988 14.2944 21.4254
26 1 27.117 1.91199 15.0993
27 1 0.953935 4.67421 10.8346
28 1 13.3113 5.10259 8.56781
29 1 14.4569 16.9462 6.7012
30 1 16.2715 1.21055 13.0013
31 1 16.7723 24.0811 8.74145
32 1 22.0445 1.80225 14.7827
33 1 1.30734 26.6537 23.4324
34 1 5.80981 24.7387 12.6099
35 1 22.8522 13.8835 21.0101
36 1 21.0634 9.68483 26.2785
37 1 9.47168 16.6696 2.75106
38 1 16.374 17.9574 19.8934
39 1 21.2037 12.7763 19.9299
40 1 3.54077 13.4131 0.846535
41 1 11.6588 23.2411 17.6402
42 1 21.5181 16.0287 22.0598
43 1 1.48709 7.91573 3.71491
44 1 11.5506 10.3651 25.9454
45 1 18.2352 13.2398 21.3279
46 1 3.34472 7.43696 9.84879
47 1 8.52905 4.85166 26.8087
48 1 13.6908 26.349 5.6504
49 1 12.5756 2.68903 22.4942
50 1 3.33586 12.5694 7.74873
51 1 19.8862 24.3971 0.723887
52 1 0.180771 4.67001 5.47432
53 1 25.0319 26.5082 8.45718
54 1 1.40183 10.4921 19.2383
55 1 7.91333 13.0846 6.20257
56 1 3.16505 6.72752 13.0968
57 1 8.24812 22.703 22.6909
58 1 7.74415 17.0269 8.79004
59 1 19.4622 24.9204 4.83345
60 1 22.493 2.03193 20.0974
61 1 4.80398 8.69914 17.2672
62 1 7.51776 16.8328 7.45887
63 1 2.27696 8.22743 8.52697
64 1 16.3564 14.7869 12.1286
65 1 19.2465 18.5775 11.4866
66 1 12.8633 2.89246 20.5298
67 1 24.6504 14.6858 10.1467
68 1 19.8231 7.08425 6.09293
69 1 13.285 20.3858 6.73468
70 1 12.0603 24.6748 11.7912
71 1 10.4012 1.60874 7.82698
72 1 14.0803 11.3646 14.107
73 1 11.9684 4.9257 4.19914
74 1 18.5628 24.0482 18.4663
75 1 10.5094 15.259 16.9239
76 1 6.44733 2.8915 11.9539
77 1 24.5114 10.8828 3.29787
78 1 24.5013 9.6451 15.0531
79 1 20.9785 9.77086 8.23783
80 1 14.9797 5.38661 24.3687
81 1 4.16961 13.7287 17.0589
82 1 21.1169 27.0874 14.7863
83 1 13.2263 15.9096 9.86246
84 1 12.2867 12.4856 23.0972
85 1 6.79143 25.0298 13.1191
86 1 8.31829 1.48192 21.6625
87 1 15.6304 4.35223 3.21039
88 1 0.794185 2.70667 17.73
89 1 1.16015 8.94808 22.919
90 1 14.9159 0.322502 13.7438
91 1 2.25269 22.8291 2.56118
92 1 10.1255 6.02384 2.87435
93 1 4.70776 13.0939 25.4924
94 1 27.0254 9.65742 26.6243
95 1 9.16688 3.70474 13.5005
96 1 14.3462 7.38773 16.9496
97 1 2.83403 7.37743 7.7895
98 1 16.6093 14.142 26.5271
99 1 1.62863 10.0047 7.25475
100 1 20.6017 13.2338 22.7821
101 1 17.1557 5.51547 21.1401
102 1 12.3358 9.44884 26.639
103 1 23.8616 23.3542 3.79703
104 1 24.5911 10.3515 1.43612
105 1 11.6386 18.2384 7.90477
106 1 14.4647 2.73456 14.7582
107 1 15.482 11.9079 23.7319
108 1 8.88997 21.6324 7.92453
109 1 25.3269 10.1596 7.75102
110 1 22.1904 17.6787 8.674
111 1 5.98743 5.3735 2.37514
112 1 19.7717 2.13528 24.0366
113 1 7.7666 0.0589556 15.3864
114 1 23.7957 4.91377 19.4016
115 1 0.760962 21.8545 22.6465
116 1 3.11599 3.58947 26.8003
117 1 24.1921 16.5532 3.04523
118 1 17.3051 20.7402 7.41379
119 1 23.923 12.6354 14.0625
120 1 16.3706 16.7381 24.5805
121 1 16.0181 26.0871 6.66433
122 1 22.3052 15.284 4.05486
123 1 14.7742 19.994 22.8764
124 1 23.0906 12.3106 3.282
125 1 10.6121 14.4163 20.573
126 1 18.5583 14.7602 1.37069
127 1 15.8122 15.6385 2.06091
128 1 5.86999 21.9913 5.85689
129 1 25.224 11.4556 7.25959
130 1 14.0265 12.3668 7.69738
131 1 8.255 13.0562 11.7606
132 1 19.7812 7.0924 18.7661
133 1 16.1045 11.0143 14.7643
134 1 17.2232 8.72249 13.6879
135 1 24.7146 18.2429 22.247
136 1 8.60265 10.6406 17.3548
137 1 22.5105 17.4229 17.6076
138 1 0.603662 8.10122 3.01389
139 1 2.6382 4.07964 25.8191
140 1 26.3182 16.3463 14.7645
141 1 17.1532 10.2771 25.8335
142 1 0.6719 7.04978 3.41571
143 1 19.3508 26.5217 5.2779
144 1 3.51306 14.6801 14.1669
145 1 3.32253 21.192 11.662
146 1 5.55144 11.7462 13.017
147 1 12.6648 22.8743 17.922
148 1 0.251792 23.6375 17.655
149 1 16.603 19.2841 19.3984
150 1 23.0242 4.99239 13.1123
151 1 15.9406 20.0732 18.9448
152 1 17.2988 1.66492 23.635
153 1 9.56205 12.1176 24.2273
154 1 16.4497 17.0208 11.6745
155 1 8.68425 18.8556 17.0388
156 1 12.7356 1.09469 8.33806
157 1 9.4181 5.80439 20.4309
158 1 24.03 12.5294 8.49404
159 1 0.771915 22.7566 16.0568
160 1 1.21253 21.1172 4.31062
161 1 17.0249 10.6233 11.2747
162 1 20.7017 20.3225 18.6231
163 1 18.3069 19.1904 19.7112
164 1 11.9545 19.3823 18.6441
165 1 1.54356 20.6181 15.4215
166 1 0.170673 14.6058 12.4953
167 1 26.404 2.66526 17.594
168 1 16.3541 20.7977 22.9865
169 1 25.1827 1.75972 16.2343
170 1 22.9752 1.2954 4.24894
171 1 23.7177 12.3272 26.7353
172 1 11.3546 22.3682 10.9918
173 1 16.3603 21.7553 19.8207
174 1 15.2249 4.31457 13.4533
175 1 14.4505 15.1258 21.0127
176 1 24.7254 26.3117 19.8448
177 1 3.99329 19.9537 22.7432
178 1 4.07464 18.8023 19.6904
179 1 12.1342 7.96808 15.8487
180 1 22.3211 22.0017 22.5184
181 1 1.28063 23.9388 3.47515
182 1 1.00652 23.4361 20.807
183 1 6.86172 11.7873 13.1702
184 1 15.655 15.4121 22.4196
185 1 5.25097 0.99857 3.33361
186 1 26.2049 7.59248 13.8754
187 1 9.33772 26.9964 20.2286
188 1 14.3477 22.0324 11.4856
189 1 1.04444 1.97711 7.78756
190 1 11.3307 25.6723 18.3676
191 1 10.8145 7.13001 13.3253
192 1 3.14525 14.3533 15.6137
193 1 25.7193 24.1321 23.0104
194 1 18.1117 12.1012 14.8348
195 1 16.811 15.5841 25.7626
196 1 2.84856 1.22868 3.46368
197 1 26.5865 4.67954 6.90997
198 1 21.3281 21.3362 18.7315
199 1 5.19806 13.3968 16.9084
200 1 2.47837 13.8351 1.55706
201 1 24.051 25.231 2.09646
202 1 7.73171 19.5831 17.4457
203 1 22.2325 13.929 7.89023
204 1 1.64059 25.8375 24.2362
205 1 11.4448 10.7073 2.28654
206 1 14.8851 11.4548 20.1262
207 1 8.86312 0.782482 10.7124
208 1 14.5854 27.0113 17.0953
209 1 0.376035 6.70551 5.81406
210 1 21.5468 15.1097 2.94319
211 1 21.7262 20.6039 22.4003
212 1 17.0242 11.259 10.1483
213 1 10.3119 24.8477 23.0267
214 1 21.7916 20.7544 8.10907
215 1 17.8976 4.49247 16.1636
216 1 3.28848 1.35817 17.0319
217 1 24.834 25.7778 4.78972
218 1 4.6866 24.421 25.4649
219 1 23.0949 9.89186 12.7244
220 1 17.8068 11.7151 27.1096
221 1 5.60926 26.5755 23.9994
222 1 23.1083 8.4506 20.8969
223 1 2.61805 21.5084 6.06497
224 1 1.92295 20.6594 7.10239
225 1 23.0088 4.56503 10.9549
226 1 4.65228 2.33481 4.55034
227 1 4.67016 24.0212 6.11545
228 1 8.16829 3.09093 27.1241
229 1 19.4784 12.4469 16.8535
230 1 13.5138 22.3686 21.1184
231 1 0.407277 16.359 12.61
232 1 18.7375 16.6732 2.41564
233 1 26.779 23.0064 4.28657
234 1 16.1522 9.17981 15.3787
235 1 5.86747 16.6025 27.1275
236 1 27.0769 24.2847 21.2075
237 1 17.7746 13.5495 15.5339
238 1 25.0499 23.113 25.8711
239 1 22.7572 8.91791 26.6311
240 1 20.2098 26.2201 13.4905
241 1 10.1913 13.8774 19.5308
242 1 19.2879 11.7739 20.2652
243 1 24.7029 6.91692 4.79216
244 1 18.2988 18.3656 26.874
245 1 20.3467 20.0852 10.5283
246 1 8.77126 2.35458 19.9145
247 1 13.542 19.2622 22.6374
248 1 13.8728 11.0722 20.9052
249 1 13.4235 1.67845 19.3147
250 1 9.72041 24.7338 14.6232
251 1 18.5764 17.2475 18.9189
252 1 17.1599 21.4556 5.18165
253 1 3.27763 22.1371 23.7436
254 1 20.1686 13.9 26.8482
255 1 4.22782 19.3545 6.00176
256 1 9.43255 1.40066 19.8371
257 1 25.1535 17.001 2.10285
258 1 0.471996 8.34737 15.8836
259 1 19.123 12.2606 14.8037
260 1 19.1604 0.221308 26.347
261 1 2.32661 9.8091 22.5811
262 1 13.9469 14.0068 12.0207
263 1 24.0006 24.8422 25.1071
264 1 0.0922289 25.5581 11.8416
265 1 17.1636 18.3014 17.2993
266 1 3.72571 7.25938 19.8466
267 1 16.3221 7.40715 11.6423
268 1 22.3191 9.78896 13.4297
269 1 22.6279 12.5101 15.079
270 1 12.902 26.1485 12.8393
271 1 13.795 22.7207 6.9152
272 1 2.03906 10.7856 9.42591
273 1 24.8279 17.6427 9.45588
274 1 5.65001 21.1206 17.131
275 1 11.7507 23.0967 16.4549
276 1 12.3899 0.912162 22.6445
277 1 18.8932 10.5474 26.9645
278 1 0.356722 20.6929 25.87
279 1 24.5334 9.33404 21.8306
280 1 5.97266 1.85949 8.71711
281 1 16.6891 17.7631 24.5888
282 1 23.441 23.1116 27.0591
283 1 22.5035 15.2435 1.49321
284 1 7.25702 14.4786 16.2983
285 1 18.5004 9.28551 22.3094
286 1 25.5175 16.7454 10.0406
287 1 10.3009 13.0991 26.8947
288 1 19.3176 19.6983 12.2265
289 1 22.1776 4.62027 1.1298
290 1 23.1148 9.87678 26.8628
291 1 23.6567 17.8166 25.6511
292 1 7.23334 9.71283 27.0015
293 1 4.1588 15.3348 24.2321
294 1 21.1334 23.1053 2.82913
295 1 18.9779 21.5704 26.9391
296 1 19.8665 26.3618 16.7212
297 1 13.681 23.9279 7.58521
298 1 21.7523 14.607 13.1666
299 1 8.32274 26.3029 26.5382
300 1 25.5811 0.501467 25.1192
301 1 19.382 23.9816 3.41757
302 1 15.1816 2.95178 15.8863
303 1 0.741581 15.2426 20.5081
304 1 4.77439 1.56459 8.34937
305 1 21.5808 16.9404 19.1949
306 1 1.46944 7.17684 19.4168
307 1 2.94879 12.8633 25.59
308 1 1.76628 25.9851 5.80135
309 1 9.87645 15.6432 13.9527
310 1 17.1894 7.27376 4.12876
311 1 2.71623 0.968434 26.1455
312 1 13.5726 12.4702 20.3527
313 1 21.5759 24.3999 24.6291
314 1 22.1266 19.7756 8.09911
315 1 18.7797 10.5717 12.8012
316 1 22.6797 2.21718 15.7744
317 1 23.5512 11.2515 8.71394
318 1 4.56323 17.009 18.5699
319 1 18.6744 19.0261 9.92734
320 1 19.9018 9.86851 9.3772
321 1 20.8252 13.9458 13.2797
322 1 11.7579 10.5611 16.2073
323 1 12.2526 19.4706 3.94385
324 1 5.79282 7.3693 17.3046
325 1 6.08413 4.13365 26.3024
326 1 14.8672 17.9189 19.6201
327 1 26.6252 25.9844 22.2878
328 1 23.0922 18.5054 3.45081
329 1 16.0904 7.87163 3.28085
330 1 17.9461 9.88572 12.9951
331 1 8.04605 24.5241 12.924
332 1 1.16515 23.865 14.3495
333 1 10.8044 0.508339 23.5803
334 1 13.9398 26.5653 0.630606
335 1 17.0791 9.90115 12.2935
336 1 8.80789 5.2051 6.67772
337 1 9.922 24.7182 25.7325
338 1 12.4006 5.3328 24.9374
339 1 24.6935 25.2423 6.65157
340 1 18.0734 24.1736 14.3947
341 1 19.8492 12.3692 25.6415
342 1 2.62743 24.0413 26.9243
343 1 21.3288 20.9815 21.0965
344 1 4.06816 23.5214 21.9131
345 1 10.2974 17.8136 10.6843
346 1 21.0921 10.7656 23.6685
347 1 7.37292 9.64763 3.58672
348 1 14.3216 21.1424 16.802
349 1 6.20356 9.00988 0.235633
350 1 25.7421 9.43409 6.03141
351 1 0.969765 24.9549 21.8558
352 1 3.57776 6.32517 10.3094
353 1 9.44544 21.7806 16.2455
354 1 24.9055 4.79177 4.79282
355 1 14.8122 12.479 13.9067
356 1 16.0923 19.0169 12.9794
357 1 12.4877 26.3993 25.4372
358 1 25.0978 6.58012 5.69788
359 1 16.7004 23.5446 7.54259
360 1 25.5998 9.15966 8.39238
361 1 0.551007 7.23573 2.29983
362 1 22.4243 11.0396 5.21116
363 1 17.1232 16.1167 11.2422
364 1 3.46071 6.11901 19.7536
365 1 22.732 10.0599 11.5963
366 1 16.3081 8.36591 6.013
367 1 24.3914 17.9409 3.57121
368 1 16.3896 8.67288 19.1066
369 1 20.759 14.8984 14.1547
370 1 16.2474 17.6878 12.5222
371 1 24.9856 13.5107 14.3661
372 1 9.83919 20.3562 13.4711
373 1 19.1576 16.5176 22.5897
374 1 10.9304 23.8016 19.489
375 1 14.2793 22.4353 22.0584
376 1 25.8555 24.0547 5.78511
377 1 14.3104 12.2462 21.0531
378 1 21.2507 1.20691 7.92562
379 1 23.9487 7.14421 22.3552
380 1 25.1837 10.7817 6.19185
381 1 6.28746 0.375136 22.2171
382 1 10.733 25.911 2.73442
383 1 9.34359 6.03945 24.1851
384 1 4.94858 17.8653 11.6492
385 1 2.69968 24.0187 23.5598
386 1 2.02284 12.4937 8.35823
387 1 9.96785 4.24503 2.15895
388 1 7.2134 8.86587 5.47112
389 1 4.292 20.5216 11.69
390 1 16.3173 16.3935 10.3361
391 1 21.3587 0.0348537 8.05041
392 1 8.37959 4.4491 14.9992
393 1 11.2521 21.0449 19.9984
394 1 4.75644 18.5208 5.34636
395 1 13.8564 23.031 8.43441
396 1 5.70203 7.72168 12.0486
397 1 20.4219 2.10682 14.6531
398 1 10.4856 13.0805 5.88376
399 1 7.32474 1.82657 15.5153
400 1 7.49577 0.645362 16.2808
401 1 4.4887 3.98181 14.252
402 1 16.6876 9.60112 8.58998
403 1 13.6719 13.5338 0.926663
404 1 25.48 0.13975 23.3444
405 1 22.5523 22.8817 21.8645
406 1 12.6718 7.89875 16.8
407 1 18.6203 8.37364 17.9391
408 1 20.569 0.0286127 16.5793
409 1 22.1943 19.6732 3.34856
410 1 11.9155 21.5565 19.2982
411 1 2.03928 11.167 22.5132
412 1 24.402 0.582095 20.918
413 1 23.2524 9.8152 3.19184
414 1 20.9776 11.2422 12.9341
415 1 13.1566 12.2709 21.4161
416 1 2.68961 26.4088 23.9095
417 1 20.1608 25.7931 2.07272
418 1 18.7639 20.1364 7.04757
419 1 13.2566 22.1058 2.40539
420 1 22.3561 25.2626 12.4102
421 1 9.91533 17.1685 8.46014
422 1 10.658 26.1829 26.6998
423 1 1.857 19.9235 5.09076
424 1 25.6483 8.04599 5.82535
425 1 20.7072 25.9201 11.9827
426 1 9.04867 14.4859 5.34862
427 1 2.68419 3.38823 5.42804
428 1 9.71618 24.641 13.5054
429 1 18.1322 10.0649 11.9918
430 1 21.1258 26.5891 21.4628
431 1 8.42175 12.6463 23.4988
432 1 25.2626 5.23219 17.681
433 1 10.6783 24.8702 19.8533
434 1 6.73543 26.5683 11.1457
435 1 13.5407 4.3132 7.77715
436 1 10.9523 2.74969 24.4363
437 1 26.972 25.0846 13.5191
438 1 4.19559 8.89441 9.85207
439 1 22.432 14.5301 15.2382
440 1 24.3519 23.5801 12.282
441 1 13.136 22.5999 9.88984
442 1 3.98047 7.01729 9.01835
443 1 20.9285 9.57068 0.347778
444 1 18.1378 17.7793 25.6992
445 1 0.245135 22.1699 6.466
446 1 3.97163 9.56126 7.85713
447 1 23.5344 3.43285 6.68075
448 1 8.14721 6.42974 23.111
449 1 24.8372 23.4747 22.3052
450 1 20.9491 8.61016 26.3799
451 1 22.319 26.687 21.4586
452 1 1.73616 0.858555 18.3082
453 1 15.196 14.3682 12.49
454 1 1.76278 17.7527 18.8519
455 1 18.0938 20.4098 26.8496
456 1 4.94522 15.0496 6.24707
457 1 4.98468 18.6147 20.4149
458 1 9.01184 17.8877 25.5878
459 1 18.9219 19.3677 0.120815
460 1 5.79312 8.4025 19.486
461 1 7.62477 20.2472 20.7903
462 1 18.9754 21.1681 4.35192
463 1 16.7889 17.7273 23.4364
464 1 8.30642 7.6263 5.85681
465 1 3.04416 23.2374 20.1471
466 1 8.09015 18.456 11.4552
467 1 15.9919 21.4025 3.60103
468 1 20.4634 1.04164 14.1507
469 1 6.48638 12.863 24.521
470 1 2.7134 13.7661 14.0082
471 1 24.9642 4.86065 19.5941
472 1 24.1029 11.9241 2.80689
473 1 1.90656 7.96301 0.713257
474 1 19.762 8.35999 5.58685
475 1 20.6866 13.0025 0.0276347
476 1 17.1085 16.7914 25.8401
477 1 10.6148 4.11394 5.55377
478 1 3.17081 9.18311 15.609
479 1 10.8309 23.5304 16.7326
480 1 18.4013 23.9526 13.3224
481 1 7.0223 12.0818 12.1877
482 1 2.91018 2.57265 6.10872
483 1 13.1817 5.26575 3.93598
484 1 6.0925 5.65201 19.4821
485 1 17.5035 10.3257 2.385
486 1 15.6975 10.7727 3.30021
487 1 16.411 10.0188 2.34402
488 1 21.8861 3.54772 23.5922
489 1 18.0869 23.9398 1.98252
490 1 17.7834 10.9779 3.26744
491 1 12.9769 24.6549 20.4808
492 1 18.2646 10.8758 26.1559
493 1 9.41324 2.32136 2.70991
494 1 18.5054 23.4741 4.29916
495 1 14.3036 0.839957 17.9276
496 1 20.7318 19.1194 18.946
497 1 7.58415 21.86 22.915
498 1 11.4643 22.5039 2.10602
499 1 25.9385 19.5467 26.9565
500 1 24.6759 16.2478 4.6307
501 1 12.1142 22.8658 18.7994
502 1 14.7339 11.0726 15.1613
503 1 24.7434 4.80508 14.4198
504 1 6.11037 0.197189 11.5361
505 1 23.4768 18.4216 26.6341
506 1 13.0397 19.2663 7.34011
507 1 24.0722 5.24605 5.61545
508 1 4.90136 6.9944 9.59245
509 1 21.1711 7.02615 7.60083
510 1 13.8231 10.1124 22.0325
511 1 24.7975 20.6101 26.6899
512 1 18.1883 0.448448 7.58379
513 1 16.7638 15.4665 24.5291
514 1 10.8809 25.2104 23.9068
515 1 22.922 20.5383 10.5905
516 1 11.9363 13.0938 22.1677
517 1 18.9629 6.16887 22.204
518 1 10.2136 4.19607 7.45423
519 1 2.441 10.1966 20.2986
520 1 1.8511 1.63043 16.8139
521 1 3.35238 24.7288 23.0436
522 1 26.7261 5.48553 0.943829
523 1 10.7304 14.584 4.14122
524 1 15.0314 22.8357 23.6216
525 1 25.0418 12.1428 3.72073
526 1 6.17104 25.8526 0.479714
527 1 9.25308 1.27697 21.0655
528 1 6.3148 23.1932 12.7788
529 1 18.4754 16.3209 26.1582
530 1 11.4809 13.7069 5.20989
531 1 0.522873 0.229902 1.91387
532 1 4.36494 21.0094 17.3181
533 1 20.2493 11.2831 18.3224
534 1 14.635 24.5356 19.595
535 1 12.112 4.77806 21.4518
536 1 25.3776 7.89398 9.42356
537 1 26.4926 18.4725 4.48562
538 1 1.00662 12.1622 4.03088
539 1 24.4507 8.9414 6.41485
540 1 8.49746 23.9076 13.8797
541 1 0.326596 10.7927 7.33261
542 1 5.06448 15.4395 25.1111
543 1 14.0992 23.2946 21.2723
544 1 20.2588 14.8896 20.6454
545 1 18.7413 26.7993 6.44239
546 1 14.1313 9.51539 15.3644
547 1 26.0927 11.9065 22.0672
548 1 3.03978 10.5354 19.1185
549 1 7.96977 15.0933 12.6836
550 1 16.8918 0.250804 9.63827
551 1 23.1071 17.4486 18.8117
552 1 27.0253 22.0705 12.5184
553 1 13.4119 23.7028 17.3675
554 1 11.2482 8.53472 3.4449
555 1 17.6916 17.9924 9.01782
556 1 22.9595 13.4344 5.56403
557 1 4.39188 18.1205 9.45801
558 1 18.8022 4.60372 12.7147
559 1 0.770812 22.9786 3.26887
560 1 26.7379 9.19973 14.9527
561 1 10.3792 15.0016 13.022
562 1 16.7422 4.59028 2.63498
563 1 14.5751 18.0436 18.5407
564 1 0.00201611 20.1069 0.566977
565 1 6.37188 18.7961 11.5121
566 1 23.1166 3.74635 3.9761
567 1 5.67483 5.2174 21.2698
568 1 19.0687 11.2724 17.4675
569 1 5.15755 26.8614 13.6033
570 1 1.74066 25.0692 16.9722
571 1 9.37534 5.98377 7.64672
572 1 23.4628 7.42727 21.4572
573 1 23.1933 1.48539 19.0639
574 1 23.9363 17.3451 26.7074
575 1 2.99349 16.9061 16.2381
576 1 16.9093 22.5291 25.5489
577 1 2.46518 18.6433 14.2724
578 1 9.14271 6.3087 3.84419
579 1 21.8969 6.87304 11.6081
580 1 15.407 10.7147 14.1044
581 1 19.375 9.57706 17.2654
582 1 25.1407 13.1812 16.9958
583 1 17.4603 9.59179 11.2433
584 1 20.563 13.6246 17.9824
585 1 13.6221 2.86781 5.91202
586 1 19.4995 19.7685 19.8796
587 1 17.1257 16.0764 23.2995
588 1 2.99091 1.63941 8.89212
589 1 24.6327 8.89945 10.0013
590 1 19.4756 5.34425 1.10846
591 1 10.6083 21.0169 13.0099
592 1 11.7067 4.54744 8.58319
593 1 11.7053 1.21464 23.7029
594 1 12.2554 26.9508 8.72373
595 1 5.93849 5.57662 1.42799
596 1 25.3946 3.45339 18.6046
597 1 3.03328 22.2719 18.8059
598 1 16.3264 2.4565 6.83538
599 1 3.93107 17.9104 20.3869
600 1 19.8287 24.2998 8.3759
601 1 1.52853 23.6564 17.648
602 1 9.78258 11.9706 25.4186
603 1 18.8904 23.9242 1.07327
604 1 12.0882 1.36882 7.32936
605 1 0.41545 23.895 19.9897
606 1 22.3833 17.5234 23.1223
607 1 22.1828 1.49845 18.1977
608 1 19.6236 17.2477 18.8842
609 1 23.4108 22.1895 2.13182
610 1 17.4888 0.825944 6.79983
611 1 22.3348 5.862 6.3425
612 1 0.618123 11.2564 2.7808
613 1 2.91606 6.321 20.8542
614 1 26.3029 12.4548 10.8006
615 1 14.4408 22.4161 2.48331
616 1 3.33617 2.52626 13.6932
617 1 17.6078 7.80457 8.0568
618 1 18.8277 8.72505 23.605
619 1 11.5315 25.6692 26.4873
620 1 23.621 0.340817 21.5771
621 1 26.4546 2.58636 0.698622
622 1 22.9021 5.4067 11.7473
623 1 10.3982 20.004 9.83867
624 1 24.0531 15.9083 19.079
625 1 17.6771 3.72181 15.2188
626 1 6.00003 17.955 6.56709
627 1 19.1295 26.904 21.601
628 1 18.8521 16.0284 0.967159
629 1 5.70525 9.69958 13.8102
630 1 1.52074 23.2531 11.098
631 1 16.908 25.9603 0.51461
632 1 18.7981 11.7295 10.8906
633 1 16.3361 17.0217 6.54986
634 1 1.64784 8.04126 17.1782
635 1 8.13715 4.61223 16.5953
636 1 11.9717 24.7176 19.3156
637 1 26.7557 15.3923 15.5415
638 1 21.7661 6.99216 9.36115
639 1 7.50456 5.55849 12.8037
640 1 1.69865 16.1702 23.0297
641 1 26.4831 25.4503 14.5783
642 1 20.4094 5.39916 14.6052
643 1 18.7809 18.7125 25.7863
644 1 5.17023 26.4977 26.3829
645 1 11.6159 6.66138 12.5452
646 1 8.3146 21.305 22.0603
647 1 21.8371 18.0565 18.2395
648 1 25.4085 10.04 14.6557
649 1 24.638 6.92378 7.99553
650 1 20.982 27.0509 18.9692
651 1 25.8941 23.0114 11.8827
652 1 5.65284 17.7717 20.4845
653 1 22.1816 8.54028 21.4605
654 1 5.90845 20.853 5.71408
655 1 14.8047 15.9772 5.07716
656 1 26.8821 5.95622 15.0465
657 1 2.41012 26.7134 16.3264
658 1 22.566 13.672 4.38966
659 1 22.9904 8.18814 22.2724
660 1 23.2648 4.25289 13.9391
661 1 25.6207 22.6508 8.30375
662 1 12.3844 12.7854 4.35891
663 1 11.7499 11.9885 2.50323
664 1 4.0931 20.5935 4.25069
665 1 5.40421 12.4918 3.66819
666 1 0.0764776 25.5757 21.2686
667 1 19.2987 12.8557 15.7327
668 1 11.1909 0.111148 9.66991
669 1 4.2799 8.08714 9.04943
670 1 15.8949 19.7366 10.7695
671 1 21.8113 14.2404 14.387
672 1 10.2281 19.3534 20.2764
673 1 18.6289 10.3526 17.715
674 1 16.2899 10.5502 16.1335
675 1 21.0725 20.2089 17.4984
676 1 9.25601 5.73378 12.3681
677 1 5.22312 12.9198 9.47718
678 1 15.7845 12.2838 21.6086
679 1 1.19252 25.6401 9.71416
680 1 25.8788 24.0891 12.9635
681 1 2.88043 8.91 14.3045
682 1 24.8226 4.29397 6.03169
683 1 0.0538912 0.205428 7.80076
684 1 8.34214 1.49441 19.4493
685 1 4.00223 8.85398 22.7325
686 1 0.458039 6.25194 0.61145
687 1 14.4993 13.738 13.4187
688 1 16.9517 14.1968 6.1988
689 1 11.2255 12.3338 5.13829
690 1 20.016 6.33358 14.9765
691 1 24.9513 9.17793 2.20619
692 1 5.12173 10.4879 14.1103
693 1 3.76269 26.012 23.3281
694 1 22.0224 18.2066 22.3392
695 1 0.874426 22.9135 4.79587
696 1 23.6599 26.8696 8.23396
697 1 2.26042 16.3707 0.509841
698 1 19.1238 23.4198 5.12619
699 1 3.49131 9.45307 17.5208
700 1 7.30264 13.1112 13.5992
701 1 11.9525 21.93 0.235258
702 1 0.865126 9.96126 10.0875
703 1 24.1964 8.17797 5.31184
704 1 1.32763 10.2553 5.98921
705 1 4.34794 7.09237 10.7738
706 1 12.7177 1.45788 21.5378
707 1 7.33978 23.0452 22.2211
708 1 6.69871 15.6011 25.2781
709 1 12.4045 26.6088 18.223
710 1 4.89634 9.02397 8.98886
711 1 13.3957 19.7039 21.5909
712 1 22.367 3.67693 8.85415
713 1 5.87616 10.5619 1.13032
714 1 22.4642 10.8873 3.85943
715 1 26.9355 24.146 14.605
716 1 22.3065 23.5118 0.290725
717 1 22.0478 9.81458 26.8529
718 1 21.2162 1.75741 15.724
719 1 6.25522 26.2245 12.3053
720 1 8.1656 11.2031 8.43275
721 1 0.53669 9.55622 15.7621
722 1 3.57183 22.8673 25.0887
723 1 0.0506662 23.9211 9.68121
724 1 17.0888 13.0187 12.9355
725 1 23.6339 0.34687 4.26846
726 1 4.07955 11.9879 13.268
727 1 11.8348 10.7252 19.8026
728 1 26.0284 8.54907 1.77533
729 1 25.2072 10.2576 2.72608
730 1 20.5225 18.6548 13.2123
731 1 2.32091 9.24216 24.2525
732 1 4.1627 19.3693 12.966
733 1 6.87248 17.8857 4.81065
734 1 11.3416 23.4119 21.2161
735 1 24.565 11.4041 20.7623
736 1 5.06569 1.30581 10.0576
737 1 5.00719 24.6525 9.61161
738 1 8.47144 0.0949523 24.2456
739 1 25.623 1.26734 0.614665
740 1 5.2313 24.9522 0.490858
741 1 20.1419 26.6499 21.7089
742 1 9.06472 6.93654 22.6056
743 1 23.8992 24.9542 21.9034
744 1 10.7763 15.4995 20.0732
745 1 2.51662 18.3939 15.603
746 1 10.5738 22.5145 26.6392
747 1 21.4494 0.897183 19.1098
748 1 10.1416 4.49157 4.60467
749 1 24.8244 26.1971 23.3452
750 1 23.2737 16.2417 11.4152
751 1 11.0185 22.8395 20.284
752 1 12.5698 13.3773 20.5281
753 1 7.50162 10.4129 16.777
754 1 14.7857 5.06295 14.7522
755 1 16.9047 9.83258 18.749
756 1 8.52804 2.25164 9.22831
757 1 19.0895 21.76 10.6748
758 1 13.4022 26.535 25.1409
759 1 24.0509 27.1232 19.9041
760 1 22.7253 2.80848 2.97422
761 1 16.8164 10.0365 15.0157
762 1 14.6827 9.83664 9.34839
763 1 13.2968 22.8419 18.9071
764 1 18.8938 3.51193 13.2586
765 1 6.61378 9.73674 1.13652
766 1 10.3156 21.2205 0.317153
767 1 10.7679 15.5173 24.0627
768 1 8.14656 10.4686 0.0167161
769 1 17.5489 23.4 11.4202
770 1 20.6718 2.73224 24.2179
771 1 19.0017 18.0422 19.6019
772 1 2.37975 5.45404 8.05075
773 1 22.1241 13.2949 13.2433
774 1 26.4165 18.1882 3.47326
775 1 10.5118 22.452 16.4725
776 1 17.2411 1.98399 10.7723
777 1 19.1884 12.4404 26.4876
778 1 17.8011 19.5099 25.8847
779 1 17.9847 11.6491 2.14568
780 1 14.5289 18.3714 24.4173
781 1 21.6868 26.7115 11.7723
782 1 4.40636 3.27535 2.437
783 1 8.47374 1.63808 4.012
784 1 22.0745 11.9088 4.06393
785 1 6.12657 26.0519 20.5238
786 1 11.2544 8.08945 17.3645
787 1 6.48031 14.7878 22.002
788 1 9.06647 13.753 22.4152
789 1 18.4055 16.0751 14.3214
790 1 2.70465 12.7864 26.6905
791 1 8.22667 18.6246 0.777971
792 1 22.0208 19.6896 21.4064
793 1 8.02024 4.82891 1.16914
794 1 1.72967 7.34417 26.1655
795 1 0.290016 11.182 5.54103
796 1 7.49341 2.12623 23.6117
797 1 25.7266 10.1869 24.8534
798 1 26.5503 6.96386 14.6858
799 1 21.1339 2.28053 19.9137
800 1 0.696875 8.91461 0.0290532
801 1 6.98176 23.8242 23.4762
802 1 7.12667 18.7069 12.4377
803 1 18.0624 12.4862 10.4101
804 1 20.9955 2.74405 10.9932
805 1 4.98045 12.9328 13.408
806 1 21.8526 23.3704 13.3064
807 1 3.62258 20.2188 17.629
808 1 2.39301 25.058 23.7994
809 1 15.1041 22.1356 1.80114
810 1 20.3356 4.07886 25.981
811 1 16.342 24.3988 23.1153
812 1 10.4847 21.6277 22.5976
813 1 5.17953 25.0256 5.46094
814 1 22.5495 20.3129 18.0405
815 1 22.1198 10.6279 23.7325
816 1 12.2146 10.772 26.8407
817 1 2.56322 15.3681 0.943214
818 1 24.6779 14.535 6.95859
819 1 10.4429 3.86768 8.75103
820 1 15.8883 16.9026 23.5693
821 1 4.04834 24.7427 24.0317
822 1 18.3348 24.7823 25.4844
823 1 24.4466 11.4801 8.23721
824 1 0.852339 5.75839 9.69659
825 1 10.4858 11.0071 1.53696
826 1 3.94496 18.3026 21.3146
827 1 25.536 0.211888 9.16314
828 1 9.5707 22.9911 23.5703
829 1 19.8014 22.8708 4.35987
830 1 8.84056 17.134 12.1914
831 1 10.2815 0.0549958 19.263
832 1 6.80055 3.46463 26.8126
833 1 8.78458 4.04907 24.6835
834 1 20.2345 11.8669 16.0961
835 1 22.0748 6.53116 10.4473
836 1 2.7999 7.43962 19.6093
837 1 16.2857 1.21305 9.51344
838 1 26.209 15.7144 12.3848
839 1 20.3477 18.0386 8.6143
840 1 8.07677 23.163 12.7567
841 1 0.315791 21.8019 4.33031
842 1 13.546 4.0413 8.84522
843 1 20.8068 24.138 21.0649
844 1 12.7609 18.2359 14.1109
845 1 24.6756 26.5865 18.0311
846 1 22.5671 16.3459 19.7845
847 1 18.8148 23.0798 9.08806
848 1 4.67525 21.4912 25.2493
849 1 4.89208 22.5543 24.8702
850 1 19.6378 22.026 24.6883
851 1 16.1102 0.0588747 0.133577
852 1 15.7064 7.98745 8.07518
853 1 24.3925 20.8205 7.72368
854 1 7.45708 26.9662 8.3739
855 1 13.0421 2.44021 24.424
856 1 9.93777 7.60892 16.8134
857 1 5.33028 15.9587 22.2578
858 1 26.9687 0.743956 12.1609
859 1 16.3334 16.6887 22.6751
860 1 27.1162 0.678998 14.4651
861 1 22.2955 20.8803 9.5627
862 1 19.6321 15.324 2.42205
863 1 16.0161 25.3059 5.3222
864 1 1.0984 12.0652 7.63752
865 1 6.43481 25.1042 2.62424
866 1 24.1389 4.85952 0.115871
867 1 2.54553 9.2119 7.80346
868 1 21.6482 23.5875 8.15942
869 1 8.86351 17.8315 10.5285
870 1 4.56012 26.2387 7.27711
871 1 9.45237 13.3935 20.1541
872 1 26.9375 2.98213 23.1825
873 1 23.9287 13.583 8.81948
874 1 2.16279 4.31026 5.63173
875 1 25.3481 23.1774 7.03924
876 1 2.47002 5.86765 25.4241
877 1 4.63058 3.23129 0.973849
878 1 25.8069 19.6167 7.88069
879 1 0.63019 22.5041 2.09976
880 1 25.3336 3.34182 6.19515
881 1 6.73557 3.69283 4.44601
882 1 5.04844 19.0094 16.4601
883 1 8.027 24.783 18.7846
884 1 22.5701 25.2436 25.2452
885 1 0.646031 21.3544 1.9179
886 1 23.0523 12.6495 4.51988
887 1 1.92622 18.2952 19.8929
888 1 12.6754 10.4993 25.5203
889 1 0.560463 0.548697 21.4859
890 1 24.0005 17.0744 1.95342
891 1 21.0271 4.1828 16.6306
892 1 5.06414 16.3548 19.6422
893 1 18.8546 15.3335 25.7439
894 1 15.9429 26.083 27.0003
895 1 26.4651 1.43807 26.8474
896 1 25.5915 10.6401 0.0876994
897 1 24.1386 12.239 4.35921
898 1 26.8265 16.1186 18.8903
899 1 13.9278 22.0773 3.96858
900 1 0.71605 24.764 20.5028
901 1 11.6374 18.3621 10.8968
902 1 9.31288 1.58304 8.63169
903 1 10.2472 6.83848 6.79828
904 1 17.036 5.78783 14.0038
905 1 7.98951 23.9158 23.0238
906 1 18.8738 18.5622 5.46943
907 1 9.70853 17.8992 3.94339
908 1 24.662 17.9711 25.98
909 1 23.4187 15.393 4.80419
910 1 2.48197 22.26 4.58529
911 1 3.15735 8.44752 8.14651
912 1 24.6202 0.446649 25.9278
913 1 25.7056 24.4095 7.09186
914 1 0.107937 2.61372 27.1021
915 1 9.34885 5.16397 1.33474
916 1 23.4698 24.1603 26.9765
917 1 21.856 19.5189 0.461552
918 1 7.92705 20.6133 4.22691
919 1 4.88147 17.3646 2.76567
920 1 11.8072 11.5872 0.476985
921 1 19.4 4.40997 7.64416
922 1 26.3051 4.18223 18.4381
923 1 0.997591 18.5443 1.86159
924 1 0.925063 9.45525 8.06843
925 1 15.8228 14.9358 26.8485
926 1 24.9034 7.94445 2.19482
927 1 16.2231 16.0242 12.0506
928 1 11.4009 8.90638 16.385
929 1 6.76137 4.61307 16.3477
930 1 3.3164 13.576 14.8286
931 1 17.7348 8.03122 6.89373
932 1 14.1418 6.97867 1.30909
933 1 20.8347 13.8859 20.6533
934 1 9.36246 25.2046 22.7121
935 1 0.877496 3.37403 22.9215
936 1 4.67856 25.0886 6.43887
937 1 11.2792 11.9325 23.2068
938 1 20.6795 16.7687 15.2023
939 1 7.24829 0.209467 23.0732
940 1 2.91945 8.14723 24.394
941 1 10.8683 6.00304 1.1518
942 1 16.2626 6.73358 23.4301
943 1 20.0545 13.2865 16.4583
944 1 16.4272 15.202 11.2009
945 1 8.90041 5.22656 16.3017
946 1 8.3995 15.9934 8.37829
947 1 17.6855 19.3552 26.9495
948 1 20.5324 16.4936 19.2073
949 1 20.9671 10.0016 9.89121
950 1 14.4886 22.7896 10.6758
951 1 26.1824 8.15271 14.7802
952 1 11.913 9.67769 3.8785
953 1 22.5731 2.44872 4.31828
954 1 16.7997 10.0562 24.1653
955 1 17.3762 26.7419 8.26952
956 1 2.5419 17.3309 15.2617
957 1 23.7269 15.9355 12.4867
958 1 6.12777 18.5551 4.75448
959 1 26.7265 21.618 13.3339
960 1 17.2493 24.1745 13.4203
961 1 7.05541 18.7918 6.2935
962 1 3.68518 2.68846 19.2403
963 1 22.1216 18.5435 3.56363
964 1 16.8903 6.60815 21.9102
965 1 23.8087 4.22567 5.85403
966 1 20.0168 10.2165 0.0984697
967 1 0.864526 5.57501 14.5098
968 1 18.6258 17.9823 9.46602
969 1 19.0223 5.49822 23.0825
970 1 14.525 14.3138 11.1631
971 1 13.2172 4.72583 14.802
972 1 8.3808 12.6264 10.7562
973 1 23.5698 9.80962 14.2712
974 1 26.1845 3.43665 14.3006
975 1 3.13071 10.1734 7.90612
976 1 10.9156 24.012 8.61003
977 1 14.0554 20.1003 3.63885
978 1 3.15056 18.5869 20.2704
979 1 22.0511 5.97276 9.00154
980 1 5.06274 7.93853 11.1007
981 1 22.0718 23.8911 2.66776
982 1 16.0553 4.92732 15.1665
983 1 6.89943 6.69834 9.02655
984 1 21.7105 2.16988 18.9604
985 1 0.0445713 8.60313 2.15913
986 1 9.39109 13.2617 23.8855
987 1 13.856 26.8458 13.3558
988 1 18.7232 17.5805 17.6712
989 1 26.0907 6.03147 23.092
990 1 8.43516 19.4258 4.35786
991 1 7.2743 12.8523 11.2668
992 1 22.6866 26.2874 22.4796
993 1 4.36723 18.8942 11.223
994 1 17.1904 12.3911 11.1317
995 1 9.10858 17.23 23.4734
996 1 26.5947 1.95935 23.1874
997 1 15.5827 1.87623 11.9419
998 1 12.9258 2.39854 18.707
999 1 1.0458 0.75968 12.0389
1000 1 12.5386 0.571121 19.3124
ITEM: TIMESTEP
110000
ITEM: NUMBER OF ATOMS
1000
ITEM: BOX BOUNDS pp pp pp